12288
Atoms. Timestep: 5034000
1 17.3434 18.6001 44.9974
1 36.5268 10.164 37.9301
1 8.83185 24.0282 49.8243
1 21.3066 9.27454 49.7805
1 22.9991 23.376 36.5515
1 31.129 5.24327 46.4198
1 45.6774 5.31173 33.6924
1 31.8839 19.0181 32.7966
1 21.7339 15.9904 42.7843
1 15.6948 23.5372 42.9629
1 15.0464 16.6367 49.6958
1 38.9307 12.316 33.3694
1 31.5196 12.0005 39.5071
1 38.487 5.4217 40.1476
1 4.75276 26.8539 52.4298
1 11.1792 19.6583 52.3394
1 11.3808 26.2067 45.3457
1 17.4173 12.3262 52.3331
1 23.5998 4.91074 52.4335
1 23.7224 11.3378 45.1876
1 18.4477 25.8671 38.6716
1 24.7779 18.479 38.7099
1 25.359 25.4612 31.8504
1 28.2936 2.66465 50.4851
1 35.5361 2.76959 44.0827
1 28.789 9.50597 43.7028
1 42.7127 2.77182 37.6536
1 50.0873 2.68092 31.4228
1 43.4606 9.82043 31.2163
1 29.2057 16.5007 37.0379
1 36.5243 16.6331 30.7064
1 29.4969 23.3062 29.9951
1 15.1718 19.9259 46.1472
1 18.2259 16.174 46.09
1 18.7242 19.765 42.8439
1 35.2228 8.97553 40.1069
1 38.8845 9.04073 36.9461
1 35.3707 12.3741 36.6323
1 10.915 22.6378 48.5645
1 7.94729 26.4437 48.785
1 7.94938 23.2325 52.3565
1 23.6013 8.07294 48.7612
1 20.2061 11.5102 48.4898
1 20.4421 8.57079 52.3471
1 25.4488 22.3785 35.7138
1 21.9812 25.7075 35.3483
1 21.6256 22.1923 38.6928
1 32.514 6.50421 44.3401
1 28.6505 6.22914 47.2476
1 31.9655 2.7457 47.3362
1 46.8616 6.33828 31.4075
1 43.4409 6.59027 34.8071
1 46.4172 2.75656 34.5698
1 33.0371 20.0096 30.4321
1 29.7019 20.3368 33.943
1 33.0315 16.7916 34.0687
1 23.9382 14.69 41.7033
1 20.9498 18.4848 41.7588
1 20.4024 14.859 44.9714
1 17.9107 22.2384 41.8386
1 14.8985 26.0255 41.9918
1 14.3189 22.3708 45.1098
1 17.072 15.1941 48.4451
1 13.9894 18.913 48.4745
1 14.3439 16.0325 52.3346
1 40.0079 13.2417 30.9736
1 36.593 13.4764 34.3832
1 40.0986 10.1186 34.6758
1 32.8903 13.332 37.4611
1 28.8832 12.6952 40.0783
1 32.7338 9.92321 40.9158
1 39.874 6.66869 38.0659
1 36.2509 6.64615 41.2656
1 39.0906 2.77482 40.8263
1 2.68777 28.2913 53.7548
1 6.04034 24.7579 53.7184
1 5.86376 27.8337 50.0621
1 9.34834 21.2491 53.7096
1 12.5815 17.6869 53.7087
1 11.9307 20.3246 49.7285
1 9.27111 27.5789 46.5904
1 12.1613 23.7116 46.2972
1 12.7476 27.3709 43.1928
1 15.707 14.0318 53.7081
1 18.7199 10.2779 53.7076
1 18.1347 12.9223 49.6944
1 21.6822 6.46724 53.716
1 24.7761 2.71058 53.7613
1 24.7677 5.9182 50.1108
1 21.3808 12.5038 46.1538
1 24.8932 9.19909 46.5604
1 25.0035 12.4238 42.9738
1 16.25 27.1793 39.8225
1 19.3229 23.4304 39.7266
1 19.7517 26.9888 36.458
1 22.4675 19.7366 39.7235
1 25.2326 15.7753 39.5675
1 26.7206 20.3891 37.296
1 23.2553 26.8105 33.1012
1 26.0613 22.8927 32.8154
1 27.2999 27.2837 30.4189
1 26.8367 1.343 52.5077
1 30.4378 1.38691 49.241
1 27.2697 4.97438 49.327
1 33.9629 1.39642 45.9361
1 37.4753 1.39911 42.634
1 34.8589 5.37766 43.3413
1 27.4476 8.31243 45.8412
1 31.3758 8.68643 43.0321
1 27.5263 11.4753 42.2063
1 41.0482 1.39907 39.4088
1 44.7395 1.39823 36.3192
1 42.094 5.40486 36.9328
1 48.5232 1.39067 33.3198
1 52.3219 1.35344 30.2524
1 49.0753 5.02688 30.2741
1 42.3864 8.89859 33.6105
1 45.669 8.51062 30.0854
1 42.2393 11.9578 29.8639
1 27.6918 14.7135 38.6922
1 31.7346 15.5789 36.2107
1 28.7474 19.4423 36.4742
1 35.4007 15.6564 33.0626
1 38.7971 15.3893 29.6259
1 35.3437 18.8041 29.3808
1 28.0288 21.8953 31.9638
1 31.9231 22.2386 29.1456
1 29.2247 26.2589 29.5247
1 18.4409 17.9436 44.432
1 16.9224 19.8257 44.4705
1 16.697 18.0481 46.1092
1 37.1548 10.7383 36.8197
1 35.312 10.6875 38.3825
1 37.075 9.03642 38.5524
1 7.80559 24.7246 50.4688
1 9.35104 22.8714 50.4082
1 9.41103 24.5264 48.6534
1 20.2526 9.97417 50.3732
1 21.8698 8.17863 50.4412
1 21.8584 9.74367 48.5843
1 21.8348 23.977 37.0529
1 23.5248 22.2385 37.1901
1 23.6173 23.9172 35.4121
1 30.4297 4.60612 47.4469
1 32.3065 4.68091 45.9212
1 30.5958 6.38321 45.814
1 44.9964 4.72064 34.7589
1 46.7818 4.65825 33.135
1 45.1808 6.49496 33.134
1 31.3196 18.5139 33.9812
1 33.0458 18.4257 32.273
1 31.2813 20.0937 32.12
1 20.6305 16.6446 43.3315
1 22.1659 14.7758 43.3305
1 22.4166 16.5826 41.7191
1 14.603 24.193 43.5438
1 16.0988 22.2931 43.458
1 16.393 24.1232 41.9001
1 14.0555 17.3759 50.3427
1 15.6071 15.5302 50.3363
1 15.5317 17.0551 48.4543
1 38.3599 11.8122 34.5428
1 40.0793 11.7089 32.8482
1 38.3313 13.396 32.7079
1 30.8272 11.3474 40.5298
1 32.8137 11.6065 39.1726
1 30.9195 13.0429 38.8026
1 37.7724 4.77312 41.1577
1 39.5699 4.77603 39.5479
1 38.0715 6.67005 39.675
1 5.76099 26.1437 51.7706
1 4.21948 28.0084 51.8588
1 4.38094 26.5256 53.7338
1 12.1217 18.8865 51.6613
1 10.5272 20.6928 51.6692
1 10.9774 19.4785 53.7089
1 12.4444 25.5334 44.734
1 11.0041 27.4715 44.8859
1 10.7003 25.6352 46.426
1 18.3205 11.5063 51.6561
1 16.7958 13.3743 51.6532
1 17.2266 12.1665 53.7075
1 24.7188 4.27563 51.8943
1 23.0198 5.99342 51.7682
1 23.2036 4.57896 53.7312
1 24.9486 10.8158 44.7686
1 23.1678 12.4431 44.5355
1 23.0841 10.7882 46.3017
1 19.563 25.2255 38.1158
1 18.0024 27.0843 38.1402
1 17.7725 25.2945 39.7574
1 25.872 17.7467 38.227
1 24.4921 19.8161 38.3191
1 23.9296 17.8109 39.6491
1 26.2009 24.6255 31.1027
1 25.1083 26.8092 31.5084
1 24.7476 24.8997 33.0155
1 29.0132 3.31594 49.4831
1 27.1128 3.21473 50.9818
1 28.6446 1.37197 50.8714
1 36.2946 3.44873 43.1274
1 34.5069 3.43632 44.7496
1 35.7165 1.39826 44.2805
1 29.4624 10.1017 42.6349
1 27.4942 9.90952 44.0352
1 29.4131 8.49822 44.4391
1 43.5098 3.44603 36.7285
1 41.6797 3.45256 38.2983
1 42.8784 1.3988 37.8467
1 50.745 3.23952 30.3259
1 48.9939 3.34509 31.9937
1 50.4196 1.37642 31.8012
1 43.9554 10.2364 29.977
1 42.345 10.4634 31.765
1 44.061 8.74005 31.8738
1 29.9915 17.303 36.173
1 27.9113 16.8326 37.4574
1 29.7355 15.273 37.53
1 37.0703 17.0982 29.5034
1 35.3732 17.2382 31.2304
1 37.1263 15.5548 31.369
1 30.3094 24.0613 29.1237
1 28.1518 23.612 30.2339
1 30.0407 22.1727 30.673
1 14.0959 20.5954 46.7384
1 15.6211 18.7209 46.6954
1 15.8263 20.4808 45.0419
1 17.1496 16.8496 46.6705
1 18.6878 14.984 46.6638
1 18.8626 16.7233 44.9721
1 17.6117 20.4074 43.3992
1 19.1255 18.5269 43.3578
1 19.4392 20.3642 41.7972
1 34.5575 8.36454 41.1748
1 36.4248 8.43954 39.6379
1 34.6612 10.0814 39.462
1 38.2485 8.46472 38.0511
1 40.0393 8.44549 36.4271
1 38.3372 10.173 36.3302
1 34.7324 11.7786 37.7245
1 36.5798 11.8406 36.1745
1 34.7836 13.4659 35.9795
1 11.9655 21.9545 47.9448
1 10.4584 23.8434 48.0271
1 10.3718 22.1683 49.7639
1 8.98842 25.7586 48.1501
1 7.55456 27.6971 48.3126
1 7.32879 25.9174 49.9228
1 8.92474 22.4941 51.6844
1 7.32946 24.3051 51.714
1 7.69941 23.0048 53.7119
1 24.8321 7.56537 48.3399
1 23.0254 9.15517 48.0904
1 22.9944 7.54749 49.9047
1 21.3096 10.8554 47.9363
1 19.6826 12.6463 47.8624
1 19.6966 11.0776 49.7185
1 21.4021 7.78918 51.7003
1 19.847 9.63726 51.6685
1 20.1978 8.37332 53.7096
1 26.794 22.0522 35.5143
1 24.7736 23.3047 34.89
1 24.7842 21.7481 36.81
1 23.1003 25.0676 34.7956
1 21.4979 26.8931 34.7755
1 21.347 25.1569 36.4715
1 22.8103 21.6036 38.2178
1 21.1621 23.3954 38.1372
1 20.8969 21.5852 39.7259
1 33.1988 7.12787 43.2936
1 31.2809 7.00304 44.7664
1 33.0097 5.32387 44.8996
1 29.3368 6.84779 46.2011
1 27.3755 6.66947 47.6081
1 29.214 5.12797 47.8946
1 32.7043 3.41467 46.3582
1 30.8772 3.3786 47.9413
1 32.2063 1.39323 47.5926
1 47.3777 6.7769 30.1867
1 45.7552 6.99184 31.9615
1 47.411 5.20266 32.0135
1 44.0629 7.1351 33.6807
1 42.3173 7.22109 35.352
1 43.8962 5.37257 35.3238
1 47.189 3.40398 33.6026
1 45.3521 3.4325 35.1707
1 46.625 1.39639 34.8165
1 33.6226 20.5115 29.2593
1 31.8626 20.5882 30.9388
1 33.623 18.921 31.094
1 30.0938 20.6723 32.6237
1 28.7906 21.1004 34.6865
1 30.2284 19.1683 34.5785
1 33.632 17.3275 32.9205
1 31.8508 17.359 34.5772
1 33.6118 15.6768 34.6902
1 25.0773 14.0513 41.2078
1 23.4996 15.9092 41.1677
1 23.2911 14.1363 42.8088
1 22.0652 17.8404 41.2115
1 20.5682 19.7345 41.2577
1 20.2363 17.8808 42.8056
1 21.517 14.2131 44.4326
1 19.9611 16.0654 44.4145
1 19.7748 14.3149 46.0963
1 19.0329 21.604 41.2913
1 17.4994 23.4774 41.3347
1 17.204 21.6462 42.8931
1 15.9863 25.367 41.4054
1 14.4974 27.2743 41.5062
1 14.2088 25.4456 43.063
1 15.4085 21.7127 44.5287
1 13.9124 23.6132 44.6141
1 13.6556 21.8108 46.207
1 18.1145 14.4894 47.8393
1 16.572 16.3524 47.8426
1 16.5912 14.7808 49.6903
1 15.034 18.218 47.8605
1 13.4957 20.0831 47.8927
1 13.4923 18.4837 49.7078
1 15.2576 15.2293 51.6543
1 13.6998 17.0667 51.6569
1 14.1585 15.8718 53.7085
1 40.5203 13.6757 29.7466
1 38.8753 13.8672 31.5084
1 40.6154 12.171 31.6419
1 37.1714 13.991 33.2184
1 35.4023 14.0346 34.8623
1 37.1844 12.3879 35.0381
1 40.6713 10.6213 33.503
1 38.94 10.7129 35.1891
1 40.6565 8.99536 35.2988
1 33.553 13.9717 36.4107
1 31.6088 13.758 37.8193
1 33.4801 12.2504 38.1263
1 29.6008 13.3731 39.0864
1 27.5685 13.0464 40.3915
1 29.5106 11.6998 40.8267
1 33.4073 10.5469 39.8617
1 31.4451 10.3329 41.2615
1 33.3199 8.85465 41.5975
1 40.5398 7.2671 36.9922
1 38.7433 7.28236 38.6124
1 40.2891 5.41999 38.5386
1 36.9276 7.26713 40.211
1 35.0822 7.21683 41.7752
1 36.6813 5.40891 41.7531
1 39.8698 3.4552 39.8903
1 38.078 3.45434 41.5033
1 39.2492 1.39925 41.0067
1 1.59009 28.9724 54.3898
1 3.43818 27.3088 54.413
1 3.15857 28.6739 52.4908
1 5.12667 25.5568 54.4097
1 6.80203 23.8142 54.409
1 6.3386 25.0294 52.3812
1 4.81728 28.5095 50.6989
1 6.2995 26.6093 50.5685
1 6.51165 28.378 48.9494
1 8.46716 22.0724 54.409
1 10.1127 20.3171 54.4093
1 9.56832 21.4476 52.3449
1 11.733 18.5409 54.4095
1 13.3255 16.7406 54.4096
1 12.7726 17.855 52.3365
1 10.9188 21.0382 50.3737
1 12.491 19.21 50.3541
1 12.4466 20.7706 48.5087
1 8.22526 28.2603 47.2224
1 9.64816 26.3147 47.0496
1 9.95142 28.1505 45.51
1 11.0976 24.3852 46.9074
1 12.5833 22.4803 46.8058
1 12.8344 24.2781 45.2094
1 11.6861 28.0455 43.8074
1 13.1334 26.1118 43.6623
1 13.4261 27.9431 42.1107
1 14.889 14.9149 54.4095
1 16.4222 13.0628 54.4092
1 15.8916 14.1893 52.3333
1 17.9247 11.1841 54.4088
1 19.4012 9.28191 54.4084
1 18.9283 10.4491 52.3362
1 17.1479 13.6738 50.335
1 18.689 11.8156 50.3437
1 18.6217 13.3384 48.4517
1 20.8657 7.36518 54.4082
1 22.3427 5.44842 54.4086
1 21.9882 6.7144 52.3742
1 23.8588 3.54523 54.4117
1 25.368 1.58298 54.4013
1 25.2743 3.16728 52.5374
1 23.568 6.46243 50.5715
1 25.3427 4.83615 50.7782
1 25.4241 6.50452 49.0274
1 20.2609 13.1442 46.6904
1 21.9075 11.3694 46.7816
1 22.0066 13.0443 45.0268
1 23.6557 9.70154 46.9698
1 25.4951 8.15204 47.2608
1 25.5526 9.77301 45.4727
1 23.8077 12.9901 43.4216
1 25.5996 11.3703 43.667
1 25.6468 12.9604 41.8612
1 15.1682 27.8419 40.4162
1 16.6712 25.9446 40.3292
1 16.9096 27.7406 38.7218
1 18.1992 24.0647 40.2729
1 19.7519 22.2033 40.2479
1 20.0177 24.0161 38.6596
1 18.6481 27.6389 37.027
1 20.2211 25.7911 37.0152
1 20.3841 27.537 35.3331
1 21.3123 20.3489 40.2368
1 22.816 18.4656 40.1967
1 23.262 20.3817 38.7537
1 24.1877 16.5003 40.1112
1 25.7269 14.5924 40.1063
1 25.9603 16.3817 38.5905
1 25.3461 20.6251 37.5093
1 27.1056 18.0048 37.5569
1 27.4519 21.3861 36.5823
1 22.1285 27.4418 33.6493
1 23.7043 25.5975 33.6443
1 23.9312 27.399 32.0204
1 25.193 23.6723 33.5912
1 27.6205 21.8535 34.3693
1 26.189 23.2402 31.4401
1 25.9506 27.6054 30.6947
1 27.4074 24.8285 30.3577
1 28.203 28.3001 29.9691
1 26.1253 0.707126 53.5647
1 27.8473 0.693477 51.796
1 26.4275 2.58631 52.0235
1 29.6306 0.697654 50.1478
1 31.3932 0.69856 48.49
1 30.1482 2.71781 48.9315
1 26.5819 4.34822 50.3669
1 28.5165 4.49416 48.9238
1 26.6913 6.05238 48.6561
1 33.1429 0.698676 46.8245
1 34.8893 0.698576 45.1598
1 33.7578 2.76101 45.7154
1 36.6393 0.698359 43.5031
1 38.4014 0.698081 41.8629
1 37.3099 2.77372 42.4491
1 34.1514 4.72958 44.3572
1 35.9704 4.75891 42.7655
1 34.4001 6.59195 42.8237
1 26.7713 7.71169 46.9037
1 28.7358 7.89469 45.5003
1 26.8272 9.32878 45.114
1 30.6976 8.07602 44.0897
1 32.6437 8.23896 42.6545
1 30.7646 9.71492 42.3131
1 26.8646 10.9097 43.2953
1 28.8274 11.088 41.8798
1 26.8961 12.4743 41.4683
1 40.1856 0.697856 40.2494
1 42.0002 0.697819 38.6712
1 40.8893 2.77405 39.2258
1 43.8483 0.698023 37.1314
1 45.7272 0.698399 35.6256
1 44.5588 2.76708 36.1064
1 41.3741 4.76981 37.9469
1 43.1865 4.75336 36.3549
1 41.6658 6.64369 36.4454
1 47.6293 0.69874 34.1414
1 49.5434 0.698554 32.6573
1 48.2685 2.73252 33.0187
1 51.4631 0.696291 31.1495
1 48.5142 4.54536 31.4574
1 41.7982 8.3831 34.7695
1 43.5145 8.26958 33.0711
1 41.8092 10.0029 32.9717
1 45.1711 8.09101 31.3214
1 41.7386 11.5358 31.0993
1 26.9585 14.0755 39.6856
1 29.0149 14.4338 38.404
1 27.1683 15.8446 38.1433
1 31.0338 14.8734 37.1913
1 32.9712 15.0805 35.7806
1 31.1901 16.7498 35.658
1 27.5496 19.2245 37.2273
1 29.6529 18.6228 35.7752
1 28.6816 20.8072 36.0769
1 34.8092 15.127 34.2148
1 36.5697 15.0713 32.5585
1 34.8027 16.7445 32.4111
1 38.269 14.94 30.8414
1 34.7799 18.3238 30.5711
1 27.202 22.0872 33.1118
1 29.3772 21.5554 31.7776
1 27.3894 22.622 30.9152
1 31.2838 21.6711 30.2591
1 27.9599 26.0429 30.1562
1 -17.3423 -18.6001 44.9974
1 -17.3421 18.6002 -44.9975
1 -17.3421 18.6002 44.9975
1 -18.6002 -44.9976 -17.3429
1 -18.6002 -44.9976 17.3429
1 -18.599 44.9972 -17.3425
1 -18.599 44.9972 17.3425
1 -44.9969 -17.3425 -18.6
1 -44.9969 -17.3425 18.6
1 -44.9968 17.3429 -18.6004
1 -44.9968 17.3429 18.6004
1 44.9979 -17.3429 -18.6004
1 44.9979 -17.3429 18.6004
1 44.998 17.3425 -18.6
1 44.998 17.3425 18.6
1 18.6001 -44.9972 -17.3425
1 18.6001 -44.9972 17.3425
1 18.6013 44.9976 -17.3429
1 18.6013 44.9976 17.3429
1 17.3432 -18.6002 -44.9975
1 17.3432 -18.6002 44.9975
1 17.3434 18.6001 -44.9974
1 -17.3423 -18.6001 -44.9974
1 -36.5257 -10.164 37.9301
1 -36.5258 10.1644 -37.9304
1 -36.5258 10.1644 37.9304
1 -10.1641 -37.9304 -36.5264
1 -10.1641 -37.9304 36.5264
1 -10.1632 37.9301 -36.5261
1 -10.1632 37.9301 36.5261
1 -37.9302 -36.5264 -10.1643
1 -37.9302 -36.5264 10.1643
1 -37.9292 36.5262 -10.1641
1 -37.9292 36.5262 10.1641
1 37.9303 -36.5262 -10.1641
1 37.9303 -36.5262 10.1641
1 37.9313 36.5264 -10.1643
1 37.9313 36.5264 10.1643
1 10.1643 -37.9301 -36.5261
1 10.1643 -37.9301 36.5261
1 10.1652 37.9304 -36.5264
1 10.1652 37.9304 36.5264
1 36.5269 -10.1644 -37.9304
1 36.5269 -10.1644 37.9304
1 36.5268 10.164 -37.9301
1 -36.5257 -10.164 -37.9301
1 -8.83074 -24.0282 49.8243
1 -8.83032 24.0282 -49.8243
1 -8.83032 24.0282 49.8243
1 -24.0282 -49.8244 -8.83111
1 -24.0282 -49.8244 8.83111
1 -24.0271 49.8242 -8.83105
1 -24.0271 49.8242 8.83105
1 -49.8237 -8.8309 -24.028
1 -49.8237 -8.8309 24.028
1 -49.8237 8.83126 -24.0284
1 -49.8237 8.83126 24.0284
1 49.8248 -8.83126 -24.0284
1 49.8248 -8.83126 24.0284
1 49.8248 8.8309 -24.028
1 49.8248 8.8309 24.028
1 24.0282 -49.8242 -8.83105
1 24.0282 -49.8242 8.83105
1 24.0293 49.8244 -8.83111
1 24.0293 49.8244 8.83111
1 8.83142 -24.0282 -49.8243
1 8.83142 -24.0282 49.8243
1 8.83185 24.0282 -49.8243
1 -8.83074 -24.0282 -49.8243
1 -21.3055 -9.27454 49.7805
1 -21.3054 9.27464 -49.7806
1 -21.3054 9.27464 49.7806
1 -9.2747 -49.7808 -21.3062
1 -9.2747 -49.7808 21.3062
1 -9.27338 49.7804 -21.3058
1 -9.27338 49.7804 21.3058
1 -49.7802 -21.3059 -9.27447
1 -49.7802 -21.3059 9.27447
1 -49.7799 21.3061 -9.27471
1 -49.7799 21.3061 9.27471
1 49.781 -21.3061 -9.27471
1 49.781 -21.3061 9.27471
1 49.7813 21.3059 -9.27447
1 49.7813 21.3059 9.27447
1 9.27448 -49.7804 -21.3058
1 9.27448 -49.7804 21.3058
1 9.2758 49.7808 -21.3062
1 9.2758 49.7808 21.3062
1 21.3065 -9.27464 -49.7806
1 21.3065 -9.27464 49.7806
1 21.3066 9.27454 -49.7805
1 -21.3055 -9.27454 -49.7805
1 -22.998 -23.376 36.5515
1 -22.9978 23.3763 -36.5518
1 -22.9978 23.3763 36.5518
1 -23.3762 -36.5519 -22.9987
1 -23.3762 -36.5519 22.9987
1 -23.375 36.5514 -22.9982
1 -23.375 36.5514 22.9982
1 -36.5512 -22.9984 -23.376
1 -36.5512 -22.9984 23.376
1 -36.5509 22.9986 -23.3763
1 -36.5509 22.9986 23.3763
1 36.5521 -22.9986 -23.3763
1 36.5521 -22.9986 23.3763
1 36.5523 22.9984 -23.376
1 36.5523 22.9984 23.376
1 23.3761 -36.5514 -22.9982
1 23.3761 -36.5514 22.9982
1 23.3773 36.5519 -22.9987
1 23.3773 36.5519 22.9987
1 22.9989 -23.3763 -36.5518
1 22.9989 -23.3763 36.5518
1 22.9991 23.376 -36.5515
1 -22.998 -23.376 -36.5515
1 -31.1279 -5.24327 46.4198
1 -31.1278 5.24341 -46.4199
1 -31.1278 5.24341 46.4199
1 -5.24337 -46.42 -31.1286
1 -5.24337 -46.42 31.1286
1 -5.24221 46.4196 -31.1282
1 -5.24221 46.4196 31.1282
1 -46.4196 -31.1284 -5.24334
1 -46.4196 -31.1284 5.24334
1 -46.4189 31.1284 -5.24334
1 -46.4189 31.1284 5.24334
1 46.42 -31.1284 -5.24334
1 46.42 -31.1284 5.24334
1 46.4207 31.1284 -5.24334
1 46.4207 31.1284 5.24334
1 5.24331 -46.4196 -31.1282
1 5.24331 -46.4196 31.1282
1 5.24447 46.42 -31.1286
1 5.24447 46.42 31.1286
1 31.1289 -5.24341 -46.4199
1 31.1289 -5.24341 46.4199
1 31.129 5.24327 -46.4198
1 -31.1279 -5.24327 -46.4198
1 -45.6763 -5.31173 33.6924
1 -45.6765 5.31212 -33.6927
1 -45.6765 5.31212 33.6927
1 -5.31174 -33.6927 -45.6771
1 -5.31174 -33.6927 45.6771
1 -5.31101 33.6925 -45.6769
1 -5.31101 33.6925 45.6769
1 -33.6925 -45.677 -5.31197
1 -33.6925 -45.677 5.31197
1 -33.6915 45.6769 -5.31189
1 -33.6915 45.6769 5.31189
1 33.6926 -45.6769 -5.31189
1 33.6926 -45.6769 5.31189
1 33.6936 45.677 -5.31197
1 33.6936 45.677 5.31197
1 5.31211 -33.6925 -45.6769
1 5.31211 -33.6925 45.6769
1 5.31285 33.6927 -45.6771
1 5.31285 33.6927 45.6771
1 45.6776 -5.31212 -33.6927
1 45.6776 -5.31212 33.6927
1 45.6774 5.31173 -33.6924
1 -45.6763 -5.31173 -33.6924
1 -31.8828 -19.0181 32.7966
1 -31.8829 19.0186 -32.7971
1 -31.8829 19.0186 32.7971
1 -19.0183 -32.797 -31.8835
1 -19.0183 -32.797 31.8835
1 -19.0174 32.7967 -31.8832
1 -19.0174 32.7967 31.8832
1 -32.7967 -31.8835 -19.0185
1 -32.7967 -31.8835 19.0185
1 -32.7958 31.8833 -19.0183
1 -32.7958 31.8833 19.0183
1 32.7969 -31.8833 -19.0183
1 32.7969 -31.8833 19.0183
1 32.7978 31.8835 -19.0185
1 32.7978 31.8835 19.0185
1 19.0185 -32.7967 -31.8832
1 19.0185 -32.7967 31.8832
1 19.0194 32.797 -31.8835
1 19.0194 32.797 31.8835
1 31.884 -19.0186 -32.7971
1 31.884 -19.0186 32.7971
1 31.8839 19.0181 -32.7966
1 -31.8828 -19.0181 -32.7966
1 -21.7328 -15.9904 42.7843
1 -21.7327 15.9907 -42.7846
1 -21.7327 15.9907 42.7846
1 -15.9907 -42.7846 -21.7335
1 -15.9907 -42.7846 21.7335
1 -15.9894 42.7842 -21.7331
1 -15.9894 42.7842 21.7331
1 -42.784 -21.7332 -15.9905
1 -42.784 -21.7332 15.9905
1 -42.7837 21.7334 -15.9907
1 -42.7837 21.7334 15.9907
1 42.7848 -21.7334 -15.9907
1 42.7848 -21.7334 15.9907
1 42.7851 21.7332 -15.9905
1 42.7851 21.7332 15.9905
1 15.9905 -42.7842 -21.7331
1 15.9905 -42.7842 21.7331
1 15.9918 42.7847 -21.7335
1 15.9918 42.7847 21.7335
1 21.7338 -15.9907 -42.7846
1 21.7338 -15.9907 42.7846
1 21.7339 15.9904 -42.7843
1 -21.7328 -15.9904 -42.7843
1 -15.6937 -23.5372 42.9629
1 -15.6933 23.5373 -42.963
1 -15.6933 23.5373 42.963
1 -23.5373 -42.9632 -15.6942
1 -23.5373 -42.9632 15.6942
1 -23.5361 42.9627 -15.6939
1 -23.5361 42.9627 15.6939
1 -42.9624 -15.6938 -23.5371
1 -42.9624 -15.6938 23.5371
1 -42.9624 15.6943 -23.5375
1 -42.9624 15.6943 23.5375
1 42.9635 -15.6943 -23.5375
1 42.9635 -15.6943 23.5375
1 42.9635 15.6938 -23.5371
1 42.9635 15.6938 23.5371
1 23.5372 -42.9627 -15.6939
1 23.5372 -42.9627 15.6939
1 23.5384 42.9632 -15.6942
1 23.5384 42.9632 15.6942
1 15.6944 -23.5373 -42.963
1 15.6944 -23.5373 42.963
1 15.6948 23.5372 -42.9629
1 -15.6937 -23.5372 -42.9629
1 -15.0453 -16.6367 49.6958
1 -15.045 16.6366 -49.6958
1 -15.045 16.6366 49.6958
1 -16.6367 -49.6959 -15.0458
1 -16.6367 -49.6959 15.0458
1 -16.6355 49.6957 -15.0456
1 -16.6355 49.6957 15.0456
1 -49.6953 -15.0456 -16.6365
1 -49.6953 -15.0456 16.6365
1 -49.6952 15.0458 -16.6368
1 -49.6952 15.0458 16.6368
1 49.6963 -15.0458 -16.6368
1 49.6963 -15.0458 16.6368
1 49.6964 15.0456 -16.6365
1 49.6964 15.0456 16.6365
1 16.6366 -49.6957 -15.0456
1 16.6366 -49.6957 15.0456
1 16.6378 49.6959 -15.0458
1 16.6378 49.6959 15.0458
1 15.0461 -16.6366 -49.6958
1 15.0461 -16.6366 49.6958
1 15.0464 16.6367 -49.6958
1 -15.0453 -16.6367 -49.6958
1 -38.9296 -12.316 33.3694
1 -38.9297 12.3164 -33.3698
1 -38.9297 12.3164 33.3698
1 -12.3161 -33.3697 -38.9303
1 -12.3161 -33.3697 38.9303
1 -12.3152 33.3695 -38.93
1 -12.3152 33.3695 38.93
1 -33.3696 -38.9303 -12.3164
1 -33.3696 -38.9303 12.3164
1 -33.3685 38.93 -12.316
1 -33.3685 38.93 12.316
1 33.3696 -38.93 -12.316
1 33.3696 -38.93 12.316
1 33.3707 38.9303 -12.3164
1 33.3707 38.9303 12.3164
1 12.3163 -33.3695 -38.93
1 12.3163 -33.3695 38.93
1 12.3172 33.3697 -38.9303
1 12.3172 33.3697 38.9303
1 38.9308 -12.3164 -33.3698
1 38.9308 -12.3164 33.3698
1 38.9307 12.316 -33.3694
1 -38.9296 -12.316 -33.3694
1 -31.5185 -12.0005 39.5071
1 -31.5185 12.0009 -39.5075
1 -31.5185 12.0009 39.5075
1 -12.0007 -39.5075 -31.5193
1 -12.0007 -39.5075 31.5193
1 -11.9996 39.5071 -31.5188
1 -11.9996 39.5071 31.5188
1 -39.5072 -31.5191 -12.0008
1 -39.5072 -31.5191 12.0008
1 -39.5063 31.519 -12.0006
1 -39.5063 31.519 12.0006
1 39.5074 -31.519 -12.0006
1 39.5074 -31.519 12.0006
1 39.5083 31.5191 -12.0008
1 39.5083 31.5191 12.0008
1 12.0007 -39.5071 -31.5188
1 12.0007 -39.5071 31.5188
1 12.0018 39.5075 -31.5193
1 12.0018 39.5075 31.5193
1 31.5196 -12.0009 -39.5075
1 31.5197 -12.0009 39.5075
1 31.5196 12.0005 -39.5071
1 -31.5185 -12.0005 -39.5071
1 -38.4859 -5.4217 40.1476
1 -38.486 5.42194 -40.1477
1 -38.486 5.42194 40.1477
1 -5.42172 -40.1478 -38.4866
1 -5.42172 -40.1478 38.4866
1 -5.42082 40.1475 -38.4864
1 -5.42082 40.1475 38.4864
1 -40.1475 -38.4865 -5.42185
1 -40.1475 -38.4865 5.42185
1 -40.1467 38.4865 -5.42179
1 -40.1467 38.4865 5.42179
1 40.1478 -38.4865 -5.42179
1 40.1478 -38.4865 5.42179
1 40.1486 38.4865 -5.42185
1 40.1486 38.4865 5.42185
1 5.42192 -40.1475 -38.4864
1 5.42192 -40.1475 38.4864
1 5.42282 40.1478 -38.4866
1 5.42282 40.1478 38.4866
1 38.4871 -5.42194 -40.1477
1 38.4871 -5.42194 40.1477
1 38.487 5.4217 -40.1476
1 -38.4859 -5.4217 -40.1476
1 -4.75165 -26.8539 52.4298
1 -4.7512 26.8539 -52.4298
1 -4.7512 26.8539 52.4298
1 -26.8538 -52.4298 -4.75198
1 -26.8538 -52.4298 4.75198
1 -26.8528 52.4297 -4.75197
1 -26.8528 52.4297 4.75197
1 -52.4292 -4.75184 -26.8538
1 -52.4292 -4.75184 26.8538
1 -52.4293 4.75211 -26.854
1 -52.4293 4.75211 26.854
1 52.4304 -4.75211 -26.854
1 52.4304 -4.75211 26.854
1 52.4303 4.75184 -26.8538
1 52.4303 4.75184 26.8538
1 26.8539 -52.4297 -4.75197
1 26.8539 -52.4297 4.75197
1 26.8549 52.4298 -4.75198
1 26.8549 52.4298 4.75198
1 4.7523 -26.8539 -52.4298
1 4.7523 -26.8539 52.4298
1 4.75276 26.8539 -52.4298
1 -4.75165 -26.8539 -52.4298
1 -11.1781 -19.6583 52.3394
1 -11.1777 19.6583 -52.3394
1 -11.1777 19.6583 52.3394
1 -19.6583 -52.3395 -11.1785
1 -19.6583 -52.3395 11.1785
1 -19.6572 52.3393 -11.1784
1 -19.6572 52.3393 11.1784
1 -52.3389 -11.1784 -19.6582
1 -52.3389 -11.1784 19.6582
1 -52.3387 11.1785 -19.6584
1 -52.3387 11.1785 19.6584
1 52.3399 -11.1785 -19.6584
1 52.3399 -11.1785 19.6584
1 52.34 11.1784 -19.6582
1 52.34 11.1784 19.6582
1 19.6583 -52.3393 -11.1784
1 19.6583 -52.3393 11.1784
1 19.6594 52.3395 -11.1785
1 19.6594 52.3395 11.1785
1 11.1788 -19.6583 -52.3394
1 11.1788 -19.6583 52.3394
1 11.1792 19.6583 -52.3394
1 -11.1781 -19.6583 -52.3394
1 -11.3797 -26.2067 45.3457
1 -11.3792 26.2067 -45.3456
1 -11.3792 26.2067 45.3456
1 -26.2067 -45.3458 -11.3802
1 -26.2067 -45.3458 11.3802
1 -26.2056 45.3455 -11.3799
1 -26.2056 45.3455 11.3799
1 -45.345 -11.3798 -26.2065
1 -45.345 -11.3798 26.2065
1 -45.3452 11.3803 -26.2069
1 -45.3452 11.3803 26.2069
1 45.3463 -11.3803 -26.2069
1 45.3463 -11.3803 26.2069
1 45.3461 11.3798 -26.2065
1 45.3461 11.3798 26.2065
1 26.2067 -45.3455 -11.3799
1 26.2067 -45.3455 11.3799
1 26.2078 45.3458 -11.3802
1 26.2078 45.3458 11.3802
1 11.3803 -26.2067 -45.3456
1 11.3803 -26.2067 45.3456
1 11.3808 26.2067 -45.3457
1 -11.3797 -26.2067 -45.3457
1 -17.4162 -12.3262 52.3331
1 -17.4159 12.3262 -52.3331
1 -17.4159 12.3262 52.3331
1 -12.3262 -52.3332 -17.4167
1 -12.3262 -52.3332 17.4167
1 -12.3251 52.3329 -17.4166
1 -12.3251 52.3329 17.4166
1 -52.3327 -17.4166 -12.3261
1 -52.3327 -17.4166 12.3261
1 -52.3324 17.4167 -12.3263
1 -52.3324 17.4167 12.3263
1 52.3335 -17.4167 -12.3263
1 52.3335 -17.4167 12.3263
1 52.3338 17.4166 -12.3261
1 52.3338 17.4166 12.3261
1 12.3262 -52.3329 -17.4166
1 12.3262 -52.3329 17.4166
1 12.3273 52.3332 -17.4167
1 12.3273 52.3332 17.4167
1 17.417 -12.3262 -52.3331
1 17.417 -12.3262 52.3331
1 17.4173 12.3262 -52.3331
1 -17.4162 -12.3262 -52.3331
1 -23.5987 -4.91074 52.4335
1 -23.5986 4.9108 -52.4335
1 -23.5986 4.9108 52.4335
1 -4.91087 -52.4337 -23.5993
1 -4.91087 -52.4337 23.5993
1 -4.90957 52.4333 -23.5991
1 -4.90957 52.4333 23.5991
1 -52.4332 -23.5991 -4.91071
1 -52.4332 -23.5991 4.91071
1 -52.4327 23.5992 -4.91083
1 -52.4327 23.5992 4.91083
1 52.4338 -23.5992 -4.91083
1 52.4338 -23.5992 4.91083
1 52.4343 23.5991 -4.91071
1 52.4343 23.5991 4.91071
1 4.91068 -52.4333 -23.5991
1 4.91068 -52.4333 23.5991
1 4.91197 52.4337 -23.5993
1 4.91197 52.4337 23.5993
1 23.5997 -4.9108 -52.4335
1 23.5997 -4.9108 52.4335
1 23.5998 4.91074 -52.4335
1 -23.5987 -4.91074 -52.4335
1 -23.7213 -11.3378 45.1876
1 -23.7213 11.3381 -45.1878
1 -23.7213 11.3381 45.1878
1 -11.3381 -45.1879 -23.7221
1 -11.3381 -45.1879 23.7221
1 -11.3367 45.1874 -23.7216
1 -11.3367 45.1874 23.7216
1 -45.1873 -23.7218 -11.3379
1 -45.1873 -23.7218 11.3379
1 -45.187 23.722 -11.3381
1 -45.187 23.722 11.3381
1 45.1881 -23.722 -11.3381
1 45.1881 -23.722 11.3381
1 45.1884 23.7218 -11.3379
1 45.1884 23.7218 11.3379
1 11.3378 -45.1874 -23.7216
1 11.3378 -45.1874 23.7216
1 11.3392 45.1879 -23.7221
1 11.3392 45.1879 23.7221
1 23.7224 -11.3381 -45.1878
1 23.7224 -11.3381 45.1878
1 23.7224 11.3378 -45.1876
1 -23.7213 -11.3378 -45.1876
1 -18.4466 -25.8671 38.6716
1 -18.4462 25.8672 -38.6717
1 -18.4462 25.8672 38.6717
1 -25.8672 -38.6719 -18.4472
1 -25.8672 -38.6719 18.4472
1 -25.866 38.6714 -18.4467
1 -25.866 38.6714 18.4467
1 -38.6711 -18.4467 -25.8669
1 -38.6711 -18.4467 25.8669
1 -38.6711 18.4471 -25.8673
1 -38.6711 18.4471 25.8673
1 38.6722 -18.4471 -25.8673
1 38.6722 -18.4471 25.8673
1 38.6722 18.4467 -25.8669
1 38.6722 18.4467 25.8669
1 25.8671 -38.6714 -18.4467
1 25.8671 -38.6714 18.4467
1 25.8683 38.6719 -18.4472
1 25.8683 38.6719 18.4472
1 18.4473 -25.8672 -38.6717
1 18.4473 -25.8672 38.6717
1 18.4477 25.8671 -38.6716
1 -18.4466 -25.8671 -38.6716
1 -24.7768 -18.479 38.7099
1 -24.7769 18.4795 -38.7103
1 -24.7769 18.4795 38.7103
1 -18.4793 -38.7104 -24.7777
1 -18.4793 -38.7104 24.7777
1 -18.4781 38.7098 -24.7771
1 -18.4781 38.7098 24.7771
1 -38.7098 -24.7773 -18.4792
1 -38.7098 -24.7773 18.4792
1 -38.7094 24.7775 -18.4793
1 -38.7094 24.7775 18.4793
1 38.7105 -24.7775 -18.4793
1 38.7105 -24.7775 18.4793
1 38.7109 24.7773 -18.4792
1 38.7109 24.7773 18.4792
1 18.4792 -38.7098 -24.7771
1 18.4792 -38.7098 24.7771
1 18.4804 38.7104 -24.7777
1 18.4804 38.7104 24.7777
1 24.778 -18.4795 -38.7103
1 24.778 -18.4795 38.7103
1 24.7779 18.479 -38.7099
1 -24.7768 -18.479 -38.7099
1 -25.3579 -25.4612 31.8504
1 -25.3575 25.4614 -31.8506
1 -25.3575 25.4614 31.8506
1 -25.4612 -31.8506 -25.3584
1 -25.4612 -31.8506 25.3584
1 -25.4603 31.8504 -25.3581
1 -25.4603 31.8504 25.3581
1 -31.8502 -25.3582 -25.4612
1 -31.8502 -25.3582 25.4612
1 -31.8497 25.3583 -25.4614
1 -31.8497 25.3583 25.4614
1 31.8508 -25.3583 -25.4614
1 31.8508 -25.3583 25.4614
1 31.8513 25.3582 -25.4612
1 31.8513 25.3582 25.4612
1 25.4614 -31.8504 -25.3581
1 25.4614 -31.8504 25.3581
1 25.4623 31.8506 -25.3584
1 25.4623 31.8506 25.3584
1 25.3586 -25.4614 -31.8506
1 25.3586 -25.4614 31.8506
1 25.359 25.4612 -31.8504
1 -25.3579 -25.4612 -31.8504
1 -28.2925 -2.66465 50.4851
1 -28.2925 2.66475 -50.4851
1 -28.2925 2.66475 50.4851
1 -2.66476 -50.4853 -28.2932
1 -2.66476 -50.4853 28.2932
1 -2.66355 50.485 -28.2929
1 -2.66355 50.485 28.2929
1 -50.4849 -28.293 -2.6647
1 -50.4849 -28.293 2.6647
1 -50.4843 28.2931 -2.66471
1 -50.4843 28.2931 2.66471
1 50.4854 -28.2931 -2.66471
1 50.4854 -28.2931 2.66471
1 50.486 28.293 -2.6647
1 50.486 28.293 2.6647
1 2.66465 -50.485 -28.2929
1 2.66465 -50.485 28.2929
1 2.66586 50.4853 -28.2932
1 2.66586 50.4853 28.2932
1 28.2936 -2.66475 -50.4851
1 28.2936 -2.66475 50.4851
1 28.2936 2.66465 -50.4851
1 -28.2925 -2.66465 -50.4851
1 -35.535 -2.76959 44.0827
1 -35.5349 2.76976 -44.0827
1 -35.5349 2.76976 44.0827
1 -2.7696 -44.0828 -35.5356
1 -2.7696 -44.0828 35.5356
1 -2.76866 44.0827 -35.5354
1 -2.76866 44.0827 35.5354
1 -44.0825 -35.5355 -2.76968
1 -44.0825 -35.5355 2.76968
1 -44.0818 35.5355 -2.76967
1 -44.0818 35.5355 2.76967
1 44.0829 -35.5355 -2.76967
1 44.0829 -35.5355 2.76967
1 44.0836 35.5355 -2.76968
1 44.0836 35.5355 2.76968
1 2.76976 -44.0827 -35.5354
1 2.76976 -44.0827 35.5354
1 2.7707 44.0828 -35.5356
1 2.7707 44.0828 35.5356
1 35.5361 -2.76976 -44.0827
1 35.5361 -2.76976 44.0827
1 35.5361 2.76959 -44.0827
1 -35.535 -2.76959 -44.0827
1 -28.7879 -9.50597 43.7028
1 -28.7879 9.50626 -43.7031
1 -28.7879 9.50626 43.7031
1 -9.5062 -43.7032 -28.7887
1 -9.5062 -43.7032 28.7887
1 -9.50493 43.7027 -28.7882
1 -9.50493 43.7027 28.7882
1 -43.7027 -28.7884 -9.5061
1 -43.7027 -28.7884 9.5061
1 -43.7021 28.7884 -9.50613
1 -43.7021 28.7884 9.50613
1 43.7032 -28.7884 -9.50613
1 43.7032 -28.7884 9.50613
1 43.7038 28.7884 -9.5061
1 43.7038 28.7884 9.5061
1 9.50603 -43.7027 -28.7882
1 9.50603 -43.7027 28.7882
1 9.50731 43.7032 -28.7887
1 9.50731 43.7032 28.7887
1 28.789 -9.50626 -43.7031
1 28.789 -9.50626 43.7031
1 28.789 9.50597 -43.7028
1 -28.7879 -9.50597 -43.7028
1 -42.7116 -2.77182 37.6536
1 -42.7116 2.77209 -37.6538
1 -42.7116 2.77209 37.6538
1 -2.77179 -37.6538 -42.7122
1 -2.77179 -37.6538 42.7122
1 -2.77102 37.6536 -42.7121
1 -2.77102 37.6536 42.7121
1 -37.6535 -42.7121 -2.77196
1 -37.6535 -42.7121 2.77196
1 -37.6528 42.7122 -2.77195
1 -37.6528 42.7122 2.77195
1 37.6539 -42.7122 -2.77195
1 37.6539 -42.7122 2.77195
1 37.6546 42.7121 -2.77196
1 37.6546 42.7121 2.77196
1 2.77212 -37.6536 -42.7121
1 2.77212 -37.6536 42.7121
1 2.77289 37.6538 -42.7122
1 2.77289 37.6538 42.7122
1 42.7127 -2.77209 -37.6538
1 42.7127 -2.77209 37.6538
1 42.7127 2.77182 -37.6536
1 -42.7116 -2.77182 -37.6536
1 -50.0862 -2.68092 31.4228
1 -50.0863 2.68122 -31.423
1 -50.0863 2.68122 31.423
1 -2.68081 -31.423 -50.0868
1 -2.68081 -31.423 50.0868
1 -2.68023 31.4229 -50.0867
1 -2.68023 31.4229 50.0867
1 -31.4229 -50.0868 -2.68108
1 -31.4229 -50.0868 2.68108
1 -31.4218 50.0868 -2.68106