read_data       ${fname}
read_data       P8-15_D3_6.xyz
  orthogonal box = (-58.1562 -58.1562 -58.1562) to (58.1562 58.1562 58.1562)
  2 by 2 by 4 MPI processor grid
  reading atoms ...
  12288 atoms
change_box 	all triclinic
  triclinic box = (-58.1562 -58.1562 -58.1562) to (58.1562 58.1562 58.1562) with tilt (0 0 0)

include potential.mod
# NOTE: This script can be modified for different pair styles
# See in.elastic for more info.

# Choose potential
pair_style     rebo
pair_coeff     * * CH.airebo  C
Reading potential file CH.airebo with DATE: 2011-10-25

#pair_style     lcbop
#pair_coeff     C.lcbop
#pair_style     tersoff
#pair_coeff     BNC.tersoff


# Setup neighbor style
neighbor 1.0 nsq
neigh_modify once no every 1 delay 0 check yes

# Setup minimization style
min_style	     cg
min_modify	     dmax ${dmax} line quadratic
min_modify	     dmax 0.01 line quadratic

# Setup output
thermo		500
thermo_style custom step temp pe press pxx pyy pzz pxy pxz pyz lx ly lz vol
thermo_modify norm no


# Output
dump            1 all xtc 100 traj.xtc
dump            2 all xyz 2000 relaxed.xyz
#dump            4 all atom 10 dump.atom

# Compute initial state
fix 3 all box/relax  aniso 0.0
minimize ${etol} ${ftol} ${maxiter} ${maxeval}
minimize 0 ${ftol} ${maxiter} ${maxeval}
minimize 0 1e-10 ${maxiter} ${maxeval}
minimize 0 1e-10 10000000 ${maxeval}
minimize 0 1e-10 10000000 10000000
Neighbor list info ...
  1 neighbor list requests
  update every 1 steps, delay 0 steps, check yes
  master list distance cutoff = 7
Memory usage per processor = 5.10809 Mbytes
Step Temp PotEng Press Pxx Pyy Pzz Pxy Pxz Pyz Lx Ly Lz Volume 
       0            0   -82365.382     21239.83     21239.83    21239.825    21239.835 -0.00066058872 0.00096521762 1.9611262e-05    116.31242    116.31242    116.31242    1573541.8 
     500            0   -87243.928   -487.34355   -487.34351   -487.34358   -487.34354 -0.001207311 0.0014656569 -2.3373758e-05    119.04509    119.04509    119.04509    1687075.1 
    1000            0   -89622.569    32.183953    32.183949    32.184017    32.183894 -0.0040797547 0.0042946072 -5.2445239e-05    117.29459    117.29459    117.29459    1613741.5 
    1500            0   -89840.489   -41.685598   -41.685598   -41.685597   -41.685599 -0.0049433041 0.0050987544 -8.6250321e-05    117.13175    117.13175    117.13175    1607029.8 
    2000            0   -90018.798   -24.005616   -24.005617   -24.005613   -24.005619 -0.0049120989 0.0050790032 -7.1556704e-05    116.96892    116.96892    116.96892      1600337 
    2500            0   -90110.347   -36.624197   -36.624197   -36.624197   -36.624198 -0.0048126562 0.0049666656 -7.0374165e-05    116.89983    116.89983    116.89983    1597502.9 
    3000            0   -90197.204    19.715795    19.715795    19.715795    19.715795 -0.0046417055 0.0047872925 -7.0249707e-05    116.83209    116.83209    116.83209    1594727.5 
    3500            0   -90267.566    15.260174    15.260174    15.260174    15.260174 -0.004475173  0.004614407 -6.9648979e-05    116.79466    116.79466    116.79466    1593194.9 
    4000            0   -90322.343     22.46825    22.392445    22.367023    22.645282 -0.0043495308 0.0044835179 -6.8681633e-05    116.77189     116.7719    116.77181    1592262.5 
    4500            0   -90371.547    23.395101    23.337502    23.318186    23.529615 -0.0042498771  0.004378655 -6.7319728e-05    116.75477    116.75477    116.75471    1591562.4 
    5000            0   -90419.884    24.259783    24.211093    24.194765    24.373492 -0.0041641615 0.0042871381 -6.5356816e-05     116.7403    116.74031    116.74025      1590971 
    5500            0   -90467.811    25.026113    24.983836    24.969658    25.124845 -0.0040856573 0.0041994862 -6.0297896e-05    116.72791    116.72792    116.72787    1590464.6 
    6000            0   -90515.661    25.712155    25.674437    25.661788     25.80024 -0.0040112915 0.0041169743 -5.6039403e-05    116.71703    116.71703    116.71699    1590019.7 
    6500            0   -90563.701    26.337414    26.302804    26.291197    26.418241 -0.003942956 0.0040387435 -4.9989749e-05    116.70719     116.7072    116.70716    1589617.9 
    7000            0   -90612.165    26.916022     26.88341    26.872472    26.992185 -0.0038777167 0.0039638167 -4.3830952e-05    116.69806    116.69806    116.69803    1589244.8 
    7500            0   -90661.286     27.46055    27.429088    27.418537    27.534024 -0.0038042218 0.0038859681 -4.2472111e-05    116.68937    116.68937    116.68934    1588889.8 
    8000            0   -90711.317    27.976081    27.945133    27.934753    28.048356 -0.0037327653 0.0038102416 -4.1044782e-05    116.68092    116.68092    116.68089    1588544.7 
    8500            0   -90762.548     28.46474     28.43381    28.423437    28.536972 -0.0036589223 0.0037321872 -3.9530385e-05    116.67257    116.67257    116.67253    1588203.5 
    9000            0    -90818.02    30.753702    30.724155    30.714363    30.822587 -0.0035750118  0.003643541 -3.7613028e-05    116.66502    116.66502    116.66499    1587895.3 
    9500            0   -90878.757    31.170075    31.138151     31.12757    31.244505 -0.0034766619 0.0035394521 -3.4851873e-05    116.65693    116.65694     116.6569    1587565.2 
   10000            0   -90949.241    33.109427    33.072955    33.062277    33.193048 -0.0033575223 0.0034137546 -3.1575734e-05    116.64889    116.64889    116.64885    1587236.6 
   10500            0   -91029.405    32.918113    32.875719    32.863304    33.015317 -0.0032165759 0.0032653422 -2.7736595e-05    116.64059    116.64059    116.64055    1586897.7 
   11000            0    -91116.65    32.547715    32.494776    32.479266    32.669104 -0.0030568178 0.0030972436 -2.3179424e-05    116.63247    116.63248    116.63242    1586566.5 
   11500            0    -91219.65    32.333133    32.266685     32.24721    32.485504 -0.002863924 0.0028969451 -1.9818338e-05    116.62427    116.62427     116.6242    1586231.5 
   12000            0   -91606.989   -27.253248   -30.987179   -32.091564   -18.681002 -0.0021500886 0.0021755498 -1.7254974e-05    116.61929    116.61961    116.61578    1585985.8 
   12500            0   -91650.766   -24.200931   -22.283927   -21.717487   -28.601378 -0.002006614  0.002034967 -1.6848206e-05    116.61482    116.61466    116.61661      1585869 
   13000            0   -91688.582   -38.845379    -43.50462   -45.034357   -27.997161 -0.0019417241 0.0019651418 -1.7368728e-05    116.61423    116.61466    116.60988    1585769.6 
   13500            0   -91723.688    22.153211    39.114739    44.687945   -17.343051 -0.0019005188 0.0019270349 -1.7348359e-05    116.59772    116.59616    116.61357    1585343.6 
   14000            0   -91762.541    25.274071     21.54257    19.674994     34.60465 -0.0018509915 0.0018775429 -1.6912953e-05    116.60173    116.60226    116.59808    1585270.4 
   14500            0   -91798.709   -19.716013   -33.511586   -41.171752    15.535298 -0.001791208 0.0018194272 -1.9315955e-05    116.60359    116.60571    116.59003    1585233.1 
   15000            0   -91836.924    51.792043    56.834421    59.711609    38.830101 -0.0017412208 0.0017672697 -1.6562061e-05    116.58205    116.58126    116.58704    1584567.3 
   15500            0   -91865.567   -29.223722   -25.207625   -21.509642   -40.953898 -0.0017026632 0.0017284505 -1.5913781e-05    116.59119    116.59017    116.59556    1584928.6 
   16000            0   -91903.179   -15.929645   -6.4633684   -48.038589    6.7130234 -0.0016555401 0.0016811536 -1.5156531e-05    116.58348    116.59496    116.57984    1584675.2 
   16500            0   -91933.993   -41.712887   -47.562984   -24.188834   -53.386843 -0.0016170799 0.0016422596 -1.4485289e-05    116.58803    116.58161    116.58963    1584688.6 
   17000            0   -91966.462    27.397869    31.794529    15.102691    35.296387 -0.0015788668 0.0016037121 -1.3649391e-05     116.5718    116.57639    116.57084    1584141.7 
   17500            0   -91996.825     46.64249    53.215311     27.34388     59.36828 -0.0015432393 0.0015677248 -1.2911991e-05    116.56477    116.57185    116.56309    1583879.2 
   18000            0   -92023.783   -3.0502573   0.63070267   -14.084733    4.3032579 -0.0015109042 0.0015349848 -1.228182e-05    116.56926    116.57329    116.56825    1584029.9 
   18500            0   -92050.486    -32.00789   -42.972924   -2.6006551   -50.450092 -0.0014793664 0.0015030504 -1.1775096e-05    116.57482    116.56374    116.57687    1584092.9 
   19000            0   -92079.063    4.2686805    12.846192    19.194325   -19.234476 -0.0014468989 0.0014702979 -1.1184326e-05    116.56206    116.56031    116.57087    1583791.3 
   19500            0   -92106.185    -2.865543  -0.96875966    1.4105469   -9.0384161 -0.001415963 0.0014390685 -1.0589795e-05    116.56326    116.56261    116.56548    1583765.6 
   20000            0   -92129.858    10.311783    8.6333574    6.6177048    15.684286 -0.0013895326 0.0014124301 -1.0114074e-05    116.56123    116.56179    116.55929    1583642.7 
   20500            0   -92152.118   -63.302661   -96.445408   -39.936989   -53.525585 -0.0013638831 0.0013864108 -9.6688856e-06    116.57962    116.56401    116.56777      1584038 
   21000            0   -92181.784   -11.690749    14.893182   -27.360309    -22.60512 -0.0013319584 0.0013541019 -8.9350067e-06    116.55497    116.56666    116.56534      1583706 
   21500            0   -92202.836   -108.91136   -108.66958    -109.0637   -109.00081 -0.0013079142 0.0013297478 -8.4873206e-06    116.57584    116.57595    116.57593    1584259.7 
   22000            0   -92220.923    13.061293    2.6189082    19.507897    17.057073 -0.0012898952 0.0013115744 -8.0947821e-06    116.56124    116.55656    116.55724    1583544.1 
   22500            0   -92243.261    76.790028    76.963086    76.661331    76.745666 -0.0012667279 0.0012882414 -7.6907214e-06    116.54925    116.54934    116.54931    1583175.3 
   23000            0   -92262.041    4.4342284  -0.41501908     8.021328    5.6963763 -0.0012460122 0.0012673569 -7.4118219e-06    116.56113    116.55878    116.55943    1583602.5 
   23500            0   -92281.648   -27.649938   -41.421636   -18.944168   -22.584008 -0.0012250539 0.0012462121 -7.1059762e-06    116.56852    116.56226    116.56327    1583802.3 
   24000            0   -92302.114   -14.663687   -13.546593   -15.366749   -15.077718 -0.0012039489 0.0012249151 -6.7517357e-06    116.56302    116.56353    116.56345    1583747.2 
   24500            0   -92321.771     41.71835    39.864307    42.998254     42.29249 -0.0011842932 0.0012051199 -6.3668232e-06    116.55645    116.55558    116.55578    1583445.7 
   25000            0   -92341.966    38.208115    25.507573    47.056218    42.060553 -0.0011636371 0.0011842917 -6.0531902e-06    116.56078    116.55476    116.55615    1583498.6 
   25500            0   -92361.243    1.2487978    52.877805   -35.939052   -13.192359 -0.0011435469 0.0011641953 -5.707487e-06    116.54892    116.57381    116.56744    1583749.5 
   26000            0    -92387.56   -4.8616648   -9.3819759   -1.0638262   -4.1391923 -0.0011170424 0.0011374214 -5.402464e-06    116.56697    116.56463    116.56549    1583843.6 
   26500            0   -92403.326   -60.056727   -37.183985   -80.169298   -62.816898 -0.0011007636 0.0011211524 -5.1961323e-06    116.56809    116.58019    116.57531    1584203.6 
   27000            0   -92419.029     20.54325    36.439082    7.8134013    17.377267 -0.0010860689 0.0011063704 -4.9582311e-06    116.55966    116.56771    116.56502    1583779.7 
   27500            0   -92433.846    10.255667   -19.829919    36.728599    13.868321 -0.001071554 0.0010915876 -4.756814e-06    116.57515    116.55921    116.56565    1583883.3 
   28000            0   -92450.541    9.9965802    11.236701    9.0288904    9.7241489 -0.0010551543 0.0010752234 -4.5325399e-06    116.56766    116.56829    116.56809    1583938.1 
   28500            0    -92465.23    40.025262    58.565442    26.168267    35.342078 -0.0010410935 0.0010611078 -4.3109573e-06    116.55974     116.5689    116.56631    1583814.5 
   29000            0   -92479.918    3.4391879    15.915191   -6.0005841   0.40295663 -0.0010265854 0.0010465264 -4.1482317e-06    116.56794    116.57414    116.57233    1584078.9 
   29500            0   -92497.285   -7.7597564   -39.741321    13.913054     2.548997 -0.0010099333  0.001029667 -4.0299955e-06    116.58376    116.56854    116.57176      1584210 
   30000            0   -92534.023   -19.806448   -18.768837   -35.219892   -5.4306142 -0.0009745228 0.00099442786 -3.7840674e-06    116.57989    116.58457    116.57609    1584434.2 
   30500            0   -92590.852    25.194237     34.93518    62.314055   -21.666525 -0.00092145916 0.00094159166 -4.0268253e-06    116.57779    116.56996    116.59399    1584450.4 
   31000            0   -92716.559    11.973831    11.192727    14.856832    9.8719353 -0.00078059569 0.00077616319 1.5147775e-06    116.60399    116.60294    116.60431    1585395.2 
   31500            0   -92781.649   -31.267722   -26.746576   -12.454299   -54.602292 -0.00076370481 0.0012536504 -0.0008743692    116.60674    116.60264    116.61474    1585570.2 
   32000            0   -92843.629    10.357459   -2.9046382    25.676164    8.3008524 -0.0021467392 0.0070306068  -0.01031071     116.5689    116.56075    116.56571    1583820.1 
   32500            0   -92884.929    21.909457    39.002737    6.4529558    20.272676 -0.0067185823   0.01359651 -0.018297895    116.48973    116.49884    116.49499      1580944 
   33000            0   -92899.639    76.310449    110.10144    46.744436    72.085471 -0.0096231955  0.015271129 -0.018518656    116.44734    116.46503    116.45798    1579408.1 
   33500            0   -92922.622    15.785377    15.746231     15.80927     15.80063 -0.016462808  0.017062801  -0.01501423     116.4147    116.41461    116.41466    1577694.8 
   34000            0   -92982.807    36.975871    40.683613     53.73061    16.513389 -0.056013694  0.031576199  0.003153391     116.2935    116.28994     116.3001    1572815.2 
   34500            0   -93037.668     -23.4978   -23.453491   -23.486973   -23.552936 -0.099195916  0.045875287 0.0097394679    116.21677    116.21758    116.21719    1569679.6 
   35000            0   -93087.984    11.918963    9.7144238    14.626905    11.415561  -0.25451617   0.20927854   0.10801279    116.16006    116.15957    116.16008      1567360 
   35500            0   -93137.409   -7.2344306   -7.0657242   -39.544928    24.907361 -0.047714054 -0.027396104 -0.033758303    116.12506    116.13428    116.11624    1565955.2 
   36000            0    -93192.28   -44.044945   -5.0787116   -55.437899   -71.618225 0.0057167962 -0.040653603  -0.12995393    116.07751    116.09229    116.09717    1564491.1 
   36500            0   -93239.961    11.953136   -2.1419546     19.66806    18.333303 -0.049018927 -0.040158039 -0.053810553     116.0383    116.03156    116.03209    1562268.3 
   37000            0   -93296.398   -34.913086   -30.538611   -55.635916    -18.56473 -0.014749178 -0.011624287 -0.027537452    115.96925    115.97764    115.96526    1559714.1 
   37500            0   -93380.868   -11.380909   -7.4566996   -5.4435812   -21.242447 -0.051185544 -0.054696499 -0.054027368    115.82527    115.82431    115.82732    1553867.8 
   38000            0    -93429.06   -21.544311   -39.933098    16.013993    -40.71383 -0.070519154  -0.07787207 -0.072963595    115.74613    115.72611    115.74737    1550418.6 
   38500            0   -93464.813    14.258253    20.177887    13.569677     9.027196 -0.037722357 -0.045503927 -0.044899632    115.67292     115.6674    115.66359    1547530.9 
   39000            0   -93500.908   0.92986883   -0.1860565    1.7913034    1.1843596 0.0087024916 -0.011489698 -0.0066213173    115.61489    115.61503    115.61431    1545395.6 
   39500            0   -93540.608   -14.373356      -15.472   -12.312457    -15.33561 -0.050367147 0.0013396972   0.15426941    115.56589     115.5647    115.56616    1543425.1 
   40000            0   -93577.689   -35.310475   -36.039392   -38.205203   -31.686829  0.077662504 -0.0019822494  0.035693818    115.52059    115.52212    115.51915    1541624.3 
   40500            0   -93611.083   -20.835607   -30.694023   -18.494055   -13.318744 -0.037017369 -0.013354787 0.0010965845     115.4752    115.47122    115.46946      1539677 
   41000            0   -93647.162   -13.435035   -6.4955963   -12.582161   -21.227347 -0.074180206  0.053315645 -0.020625943    115.41328    115.41566    115.41881    1537436.1 
   41500            0   -93672.422   -10.143998  0.078288865  -0.99736688   -29.512916 -0.0027308346 -0.0090952477 -0.0012977882    115.37108    115.37183    115.38159      1535795 
   42000            0   -93708.579   -67.949414   -57.374322   -84.779715   -61.694206 -0.0089678175 -0.0088427824 -0.0066461752    115.32247    115.33205    115.32449    1533859.2 
   42500            0   -93738.571    1.5108081   -20.233568    8.1672451    16.598747 -0.013468247 -0.012320039 -0.010236544    115.27114    115.25946    115.25597    1531301.2 
   43000            0   -93770.398   -14.256868   -23.246135   -14.279953   -5.2445153 -0.019905161 -0.018632583 -0.015552634    115.21758    115.21433    115.21115    1529395.3 
   43500            0   -93796.156     -12.6918   -19.203815    16.542544   -35.414129 -0.028319477 -0.026571926 -0.022464163    115.17293    115.16082    115.17842    1527658.4 
   44000            0    -93821.36   -7.5958211   -10.229074   -4.1292441   -8.4291454  -0.04053468 -0.037497438 -0.031895363    115.12764    115.12562    115.12706    1525910.4 
   44500            0    -93845.06    5.0179409    3.2847361   0.36592833    11.403158 -0.055707035 -0.050927861 -0.043397742    115.08272    115.08363    115.08003    1524135.6 
   45000            0   -93868.518  -0.60162469   -9.1703905    20.509164   -13.143647 -0.074064887 -0.067538283 -0.057251291    115.04241    115.03211    115.04385    1522440.9 
   45500            0   -93890.119    3.7223659     2.920176     6.270953    1.9759685 -0.093245238 -0.085457882 -0.072051526    114.99833    114.99733    114.99872    1520800.8 
   46000            0    -93918.56   -1.5093089     1.543478   -8.4856998    2.4142952  -0.12550526  -0.11659164 -0.098267769    114.94331    114.94704    114.94308    1518673.1 
   46500            0   -93940.013   -17.433118   -50.922289   -17.370233    15.993168  -0.15800737  -0.15336402  -0.12709168    114.91749    114.90597    114.89433    1517145.8 
   47000            0   -93963.565   -27.453325    -33.59237   -15.100617   -33.666988   -0.1856232  -0.18864285  -0.14964815    114.86365    114.85747    114.86382    1515392.5 
   47500            0    -93983.34    1.3826857    9.9284073    -20.94286     15.16251  -0.18466357  -0.19407981  -0.14717976    114.81346    114.82442    114.81179    1513608.6 
   48000            0   -94003.632   -31.745062   -34.999639   -24.507408   -35.728139  -0.15862668  -0.17138243  -0.12243678    114.78253    114.77878    114.78302    1512220.2 
   48500            0   -94030.763   -7.4232508     8.455646      -45.465    14.739602  -0.10609265  -0.11793321 -0.074626303    114.71662    114.73503    114.71472    1509876.9 
   49000            0   -94052.739     2.500521    6.1285719    -3.872582    5.2455731 -0.073933264 -0.088648184 -0.046221158    114.67662    114.67997    114.67715      1508132 
   49500            0   -94079.474  -0.52175321    9.9490542    4.4378931   -15.952207 -0.051895266 -0.069767984 -0.027222221    114.62422    114.62568    114.63395    1506161.7 
   50000            0   -94103.664   -3.9305868   -4.8108051   -5.4108284   -1.5701267 -0.049233815  -0.06495301 -0.026199897    114.58317    114.58375    114.58238    1504394.4 
   50500            0   -94126.877    -25.39704   -48.710502   -16.012508   -11.468111 -0.050288559 -0.068869039 -0.027600515     114.5522    114.54085    114.53947    1502861.7 
   51000            0   -94147.245   -7.2059982    -14.77928    -3.664307   -3.1744078 -0.058433555 -0.078074977  -0.03668104    114.50321    114.50123    114.49923    1501171.7 
   51500            0   -94170.561   -14.881674   -7.0098828   -19.910407   -17.724734  -0.10413442 -0.097453825 -0.054097209     114.4559    114.46086    114.46009    1499509.7 
   52000            0   -94194.357   -42.705909   -47.429234    -26.32417   -54.364322 -0.097172538  -0.10835035 -0.077991124    114.41507    114.40841     114.4173    1497727.8 
   52500            0   -94210.188   -22.590207   -30.144917   -15.759108   -21.866594 -0.096089115  -0.11902505 -0.092021633    114.38224    114.37636    114.37903    1496377.9 
   53000            0   -94235.556    6.5824425    19.293162     -33.9107    34.364866  -0.12026629   -0.1225092 -0.099346231    114.31505    114.33444    114.31046    1494054.5 
   53500            0   -94259.458    5.7213351    20.644035   -11.502649    8.0226191    1.6443979   -1.1772279   -1.0291696    114.26056    114.26785    114.26306    1491853.8 
   54000            0   -94277.549   -4.2698004    8.7501379   -14.533168   -7.0263706  -0.12364612   -0.1018247 -0.085664784     114.2194    114.22679    114.22532      1490288 
   54500            0   -94293.213    3.3178141    7.2430085    2.7705475 -0.060113791  -0.12647831  -0.11285543  -0.09980885    114.18316    114.18482    114.18596    1488754.6 
   55000            0   -94316.465   -26.395976   -5.6850495   -35.489523   -38.013356  -0.11048303 -0.098376631  -0.10001827    114.12417    114.13489    114.13582    1486681.8 
   55500            0   -94334.733    8.2809781    8.1778309    8.5726331    8.0924702  -0.10554978 -0.084033025 -0.094327823    114.08006    114.07948     114.0801    1484660.6 
   56000            0   -94356.224    12.186117   -13.446014    42.789282    7.2150827  -0.10650859 -0.094916994 -0.098329926    114.03871    114.01747    114.03107      1482678 
   56500            0   -94377.009     1.559691   -6.1237136    46.360629   -35.557842  -0.34789764   0.34104842  -0.13037704    113.98925     113.9713    113.99995    1481030.6 
   57000            0   -94395.532    6.2334636    3.1063019    5.9394196    9.6546693 -0.021358909  -0.28383988  -0.11978133    113.94663    113.94549     113.9442    1479417.8 
   57500            0   -94415.865    69.998736    45.903439    99.216264    64.876504 -0.069594569 -0.050506328 -0.068957069    113.89251    113.87396    113.88633    1477036.4 
   58000            0   -94434.164   -3.2989368   -19.126398    19.327302   -10.097713 -0.057365815 -0.068964855 -0.036466166    113.86163    113.84678    113.85787    1475914.6 
   58500            0   -94453.614   -52.762494   -83.665239   -66.921688   -7.7005537 -0.086907267 -0.024389373 -0.022590902    113.82878    113.82293    113.80188    1474454.2 
   59000            0   -94471.109   -6.9837546    2.3808172   -12.876032   -10.456049 -0.072401574  0.038728737  -0.02535256    113.76445    113.76992    113.76894    1472508.1 
   59500            0   -94489.187   -4.5753015    4.6920217   -15.690366   -2.7275599 -0.063027924  0.058722707 -0.0065222706    113.71947    113.72699     113.7223    1470767.4 
   60000            0   -94504.683    16.187626    9.9685318    15.111295     23.48305 -0.051156498   0.11239773   0.01702091    113.68301    113.68136    113.67835    1469138.1 
   60500            0   -94520.154    -1.748561    -1.681017  -0.76175817   -2.8029079 -0.033819684  0.082593264  0.025699433     113.6441    113.64403    113.64465    1467717.7 
   61000            0   -94538.392   -19.360492   -6.7013695   -21.626244   -29.753862 -0.019179215  0.072085004  0.034609435    113.59534    113.60113    113.60382    1466007.3 
   61500            0   -94554.424    5.9712718    8.4754772   -4.9205332    14.358871 -0.0044080113  0.081208966  0.034841542    113.55219    113.55716    113.55006    1464189.9 
   62000            0   -94571.629    13.784334    10.807989    7.5672912    22.977722  0.013124317  0.084814659  0.040167294    113.50572    113.50735    113.50172    1462325.9 
   62500            0    -94585.32    17.596945    7.4885793     37.62427    7.6779868  0.020504303   0.17931894  0.036293465    113.46893      113.459    113.46837    1460799.9 
   63000            0   -94598.068    12.195436    12.828951    11.883257      11.8741 -0.0071327378 -0.051757192  0.050631608    113.42844    113.42844     113.4282    1459368.4 
   63500            0   -94610.142    34.850826    44.428691    23.323627    36.800159  0.033771999  0.045981239   0.04384721    113.38527    113.39245    113.38794    1457832.6 
   64000            0   -94623.522    12.667677    17.006494    5.1551157     15.84142  0.039738114  0.051588964  0.044436645    113.34753    113.35023    113.34788    1456290.1 
   64500            0   -94635.316   -11.389749   -26.927992    7.6369212   -14.878177  0.042708113  0.048135069  0.043306435    113.32182    113.30952     113.3176    1455047.9 
   65000            0   -94646.411   -5.7890738   -9.2307756   -2.1001261   -6.0363198  0.041046679  0.054168199  0.048773602    113.27671    113.27422    113.27579    1453479.2 
   65500            0   -94657.105   -2.4906839    1.2989442   -5.2359382   -3.5350576   0.04534036  0.040662461  0.040963493    113.23259    113.23452    113.23375    1451864.8 
   66000            0   -94667.771    1.0959013   -3.8950181   -1.0853067    8.2680286  0.043997921  0.037148765  -0.01074369     113.1934     113.1923    113.18886      1450246 
   66500            0   -94675.778    94.337678    106.09679    91.816755    85.099485  0.038481869  0.032041178   0.10074537    113.13778     113.1412    113.14363    1448300.1 
   67000            0    -94685.87  -0.94319341    1.9120152  -0.75091316   -3.9906823   0.04147029  0.043197771  0.034584688      113.115    113.11607    113.11715    1447348.1 
   67500            0   -94694.889   -13.554961    -15.09172   -21.923364   -3.6497985  0.040422376  0.028125843  0.032836027    113.07938    113.08192    113.07525    1445919.5 
   68000            0   -94703.297   -8.2737823        1.685   -12.586346   -13.920001  0.031547289 0.0099612358  0.026228481     113.0361    113.04143    113.04202      1444424 
   68500            0   -94710.676    1.9305361    -5.022728    4.9430879    5.8712484   0.03719021  0.023844951  0.028532233    113.00592    113.00227    113.00198    1443026.9 
   69000            0   -94718.953   -7.0550773   -11.814509   -3.5612794   -5.7894438  0.032018075  0.022498896  0.037727802    112.96656     112.9636    112.96448      1441552 
   69500            0   -94727.062    3.4696791    3.4771024    3.4454137    3.4865212  0.034405862  0.012683287   0.10734787    112.92268     112.9227    112.92265      1439937 
   70000            0   -94735.843   -51.331672   -41.700373    -59.90321   -52.391432    1.1775651   0.46102517    1.1224541    112.88164    112.88815    112.88319    1438470.5 
   70500            0   -94741.182   0.61886658    1.5876438   -0.7703587    1.0393147  0.014496807 0.0088046299  0.006234738    112.84967    112.85062    112.85004    1437162.9 
   71000            0   -94748.241    22.736047    25.306376     23.58863    19.313136   0.02704539    -0.139759 -0.040553784    112.80698    112.80753    112.80908    1435549.3 
   71500            0    -94755.07    5.5902336   -2.1962378    10.821796    8.1451427   0.40882693  -0.22016045  -0.20209485    112.77643    112.77182    112.77315    1434249.3 
   72000            0   -94759.575    6.5279668   -7.3580034   -23.683379    50.625283   0.40494894    -0.451903   -1.0546652    112.75288    112.75963    112.73246    1433277.5 
   72500            0   -94765.089    19.214034    44.044276   -1.1022485    14.700074 -0.089953661 -0.021530289   0.14190875     112.7052    112.72197    112.71609    1431984.9 
   73000            0   -94771.106     -24.2031   -23.828314   -24.768584   -24.012402   0.20208694   -0.0155943  0.082469202    112.68597    112.68649     112.6856    1430902.8 
   73500            0   -94779.093   0.99677718    1.6437306    -1.105993    2.4525939  -0.32278544  0.049122058   0.33880872     112.6343    112.63496     112.6343    1428941.8 
   74000            0   -94785.562    -23.80065   -26.377668   -27.027497   -17.996784    0.1624957   0.37258904    0.8133551    112.60025    112.60011    112.59682    1427592.5 
   74500            0   -94791.787   -1.6473094    6.1056345    2.1090317   -13.156594   0.12949894  -0.29470288   0.15554848    112.54984    112.55032    112.55555    1425799.7 
   75000            0   -94797.465    -38.90421   -10.708577   -62.214312    -43.78974  -0.10127265   0.23269378 -0.087361892    112.51448    112.53396    112.52737    1424787.9 
   75500            0   -94806.892   -7.2760657    19.023933   -18.761393   -22.090737  0.030580032  0.036351474  0.048241911    112.44574    112.45934    112.45978    1422118.5 
   76000            0   -94816.098    1.0466675  -0.79420659    5.2725502    -1.338341 -0.010690962  0.020303053  0.015502899    112.38876    112.38631    112.38917    1419582.9 
   76500            0   -94827.239   -10.471485   -22.557148    16.055133   -24.912439 0.0049741074  0.017171046  0.011335719    112.31173    112.29698    112.31223    1416511.9 
   77000            0   -94838.314   -1.0252514   0.20389363   -1.9007613   -1.3788865 0.0034369238   0.01353421 0.0078206238    112.21784    112.21842    112.21881    1413161.1 
   77500            0    -94842.67    4.5105818   -6.8010197   -2.4208381    22.753603 0.0042759108  0.012121372 0.0082638913    112.18646    112.18478     112.1754    1411796.3 
   78000            0   -94855.047   -1.3559582   -3.8888817    1.3051693   -1.4841622 0.0031860892  0.009010315 0.0057747869    112.08046    112.07845    112.07962    1407922.2 
   78500            0   -94864.304   -5.8357657   -12.471095   -1.8226604   -3.2135413 0.0025200793 0.0073811295 0.0047034949    112.00135    111.99739    111.99794    1404886.4 
   79000            0   -94870.079   -24.960986    6.3274299   -41.521921   -39.688468 0.0023390129 0.0061543774 0.0035063637    111.93811    111.95602    111.95546    1403042.2 
   79500            0   -94878.477    -17.03339   -21.602853   -16.350131   -13.147186 0.0019162284 0.0052133223 0.0034929551    111.87132    111.86934    111.86825    1400027.9 
   80000            0   -94884.756    6.5273601  -0.43678466    6.7909362    13.227929 0.0015910231 0.0043531339 0.0030410216    111.80694    111.80422    111.80192    1397578.4 
   80500            0   -94891.793    -4.923548   -4.8440673    -4.934773   -4.9918037 0.0049700133 0.0083612209 -0.0042185828    111.73493    111.73429    111.73405    1394957.6 
   81000            0   -94896.149    13.806989    12.543397    28.902479 -0.024907087 0.00088980395 0.0021263766 0.0037624081    111.68765    111.68105    111.69231    1393182.2 
   81500            0   -94899.574   -13.670549   -22.972526    2.2009207    -20.24004 0.0011402282 0.0032919318 0.0023685583    111.65918    111.64972    111.65821    1392011.2 
   82000            0   -94903.635    11.560961     8.683923    4.8018274    21.197132 0.0010250679 0.0029847686 0.0023722402    111.60849    111.61006    111.60403    1390210.1 
   82500            0   -94905.824   -17.236313   -2.2767999   -24.121382   -25.310757 0.0015108108 0.0032318849 0.0014398119    111.58297      111.591    111.59142    1389497.8 
   83000            0   -94908.078   -1.6893688   -12.041807    2.0226547    4.9510454 0.0013666921 0.0032574399 0.0013838936    111.56471    111.55932    111.55826    1388463.4 
   83500            0   -94912.272 -0.029628022   -1.3269188   0.32063469   0.91740006 0.00067400426 0.0018407176 0.0024620117    111.51342    111.51296    111.51283    1386683.4 
   84000            0   -94917.057    17.049065    19.238806    21.373089      10.5353 -2.1088432e-05 0.0021831535 0.0011427952    111.45377    111.45271    111.45624    1384489.8 
   84500            0   -94918.664   -2.0650264   -1.8403155   -1.4816044   -2.8731594 -0.00049042275 0.0016253299 0.0015418436    111.43841    111.43802    111.43809    1383891.1 
   85000            0   -94921.775  -0.14190422    6.7557694      -28.743    21.561518 0.0016605267 0.0036614055 0.0013256454    111.39884    111.41225    111.39365    1382528.3 
   85500            0    -94923.85    3.5507736  -0.17007948    3.3467615    7.4756387 0.0020059139 0.0037193878 0.0011080104    111.37746    111.37593    111.37435    1381572.9 
   86000            0   -94930.151    13.976528    23.193473    5.6734317    13.062679 -0.00060602446 0.0027745246 0.0076328396    111.29232    111.29862    111.29633    1378592.1 
   86500            0   -94932.308    3.4003532    31.622102    8.5415871    -29.96263 0.00057083141 0.00041848406 0.0015097776    111.26001    111.26838    111.28269    1377648.8 
   87000            0   -94935.543   -14.634528   -26.092456    -9.153593   -8.6575356   0.05330176  0.027686089  0.010751179    111.22798    111.22461    111.22401    1375984.4 
   87500            0   -94938.002    3.5197495    6.7539189    9.6415169   -5.8361874 -0.0025121514  0.015461039 -0.0050725172    111.19569    111.19515    111.20097    1374935.5 
   88000            0   -94939.583   -2.7558981    2.7057222   -18.157069    7.1836527  0.013625145  0.058048748 -0.027842982    111.16906    111.18073    111.17193    1374069.1 
   88500            0    -94940.83     9.794081     17.60963    2.3655195    9.4070932 0.0022207954 0.0022022008 0.0005879273    111.15636     111.1621    111.15947    1373528.2 
   89000            0   -94943.188    4.7344823  -0.33031321    16.034258   -1.5004977   0.13227507  -0.14024911 0.0013541489    111.13142    111.12407    111.12891    1372372.7 
   89500            0   -94946.567  -0.47042221    8.6430994   -12.337413    2.2830466   -0.0122532 -0.041793069   0.11604627    111.08085    111.08834    111.08406    1370753.6 
   90000            0   -94950.087    3.2219874   -3.6561741    11.689994    1.6321422 -0.039168205 -0.088591661   0.10998163    111.03931    111.03346    111.03718    1368986.1 
   90500            0   -94951.885    5.1449496    3.9034031    4.9152249    6.6162207  0.049539916  0.081362052 -0.089746605    111.01214    111.01208    111.01158    1368072.2 
   91000            0   -94954.076   -28.819049   -2.0232788   -36.400421   -48.033446  0.040437385 -0.093308997  0.074577714    110.97712     110.9904    110.99461    1367164.5 
   91500            0   -94956.818   -4.3830421   -1.0292417   -4.7981949   -7.3216898 -0.023112945 -0.064004934 0.00088899924    110.94411    110.94582    110.94622    1365613.2 
   92000            0   -94959.033   0.68297508   0.66688907    5.1389668   -3.7569306 -0.0090013405  0.015934288 -0.049917187    110.91319    110.91145    110.91496    1364425.3 
   92500            0   -94959.871    1.5603585    3.3136459    2.3927432   -1.0253137  -0.20482897 -0.033070504   -0.1857014    110.90008    110.90071    110.90241    1363977.4 
   93000            0   -94962.038    3.8588285    4.1625904    2.4720901    4.9418051    0.2842118  -0.27250663  0.028626771    110.86902    110.87043    110.86827    1362803.4 
   93500            0   -94964.933    37.885679    31.790487    34.382371     47.48418   0.20956823  -0.18715205 -0.044824114    110.82244     110.8218    110.81628    1360994.8 
   94000            0   -94965.455   -11.457699   -4.0390866   -1.8482125   -28.485798   -0.1136643   0.19165139  -0.14184379    110.81771    110.81686    110.82713    1361009.3 
   94500            0   -94965.871    12.359121    7.5372129    10.998313    18.541836   0.17162085  -0.18941522   0.53051321    110.81222    110.81004    110.80752    1360617.3 
   95000            0   -94966.309    4.9800638    10.260399    6.2940724   -1.6142802  -0.40168174   0.55966789 -0.027460489    110.80319    110.80233     110.8072    1360407.9 
   95500            0   -94967.642   -9.3046668   -2.8400192   -11.106051    -13.96793  -0.63837424   0.83369377  -0.10206858    110.78145    110.78266    110.78605    1359639.9 
   96000            0   -94969.656   -3.8218402   -2.6646874   -3.3289962   -5.4718369    0.1536315  0.043220392 -0.052900147    110.75104    110.75149    110.75242    1358471.8 
   96500            0   -94970.103   -5.1319874   -8.7715467 0.0067445076   -6.6311601 -0.039179619  0.016230709  0.045841677    110.74545    110.74198    110.74473    1358192.2 
   97000            0   -94971.062    1.7396462    1.8051714    2.1335769    1.2801902 -0.064358364  -0.11859779  -0.15104258    110.72545    110.72548    110.72591    1357513.9 
   97500            0   -94974.338    9.6626743    4.1829457    25.040074   -0.2349968   0.23387199 -0.013226113  -0.11699393    110.65042    110.64095    110.65092    1354640.3 
   98000            0   -94975.056    7.2322689    10.252721    8.7621255    2.6819601   0.25463596   0.18840472  -0.24886803    110.62834    110.62703    110.63006    1353944.3 
   98500            0   -94975.129 -0.0041811778   -3.9802212  -0.17621922    4.1438969  -0.17152455  -0.14712287  0.095895771    110.63324    110.63252     110.6306    1354078.1 
   99000            0   -94975.563    16.960465    7.2519578     17.10653    26.522907   0.13393224   0.95289152   0.30052277    110.61889    110.61514    110.61225    1353465.2 
   99500            0   -94975.931   -7.5834209   -13.678778   -5.5389414   -3.5325432  0.050086881  -0.27989922  -0.32467444    110.60673    110.59906    110.60017      1352972 
  100000            0   -94976.613    3.4072388    1.5534732    4.0111643    4.6570787 -0.010973237 -0.045174023 -0.046647409    110.58359    110.58237    110.58212    1352264.1 
  100500            0   -94976.817    1.0259368    3.5736531  0.087668148  -0.58351095  0.026617675 -0.046794557  0.023663364    110.57218    110.57323    110.57348    1351907.1 
  101000            0    -94977.04   -7.6711456   -13.797901   -5.3364714   -3.8790644   -0.4760902   0.19943636  -0.14275572    110.55687    110.55328    110.55413    1351239.6 
  101500            0   -94977.222   0.60357192    1.5696525   -1.5170168    1.7580801   0.01117462  -0.17845505 -0.082844643    110.43668     110.4362    110.43587    1346898.8 
  102000            0   -94977.229  -0.02997714   -0.2374042    0.4173208  -0.26984802 -0.027212566  -0.12166526 -0.048757367    110.43412    110.43399    110.43421    1346820.3 
  102500            0   -94977.248  -0.95039876  -0.47549579   -2.0735562  -0.30214431  0.065171037  0.038385097   0.11140878    110.44901    110.44996    110.45035    1347393.6 
  103000            0   -94977.277    4.1140313    2.6566747    4.0042206    5.6811985 -0.013350922 -0.028771527  -0.10775066    110.48617    110.48452    110.48331    1348670.9 
  103500            0    -94977.31   -4.9763933    -6.134616   -3.8234014   -4.9711626  -0.13524155  -0.17017488   0.13797685    110.53883    110.53827    110.53932    1350654.6 
  104000            0    -94977.34 -0.046698562    0.7261821   0.32995292   -1.1962307   0.18235087    0.2313322 -0.070364113    110.57165    110.57211    110.57299    1351881.1 
  104500            0    -94977.35   0.50365269    1.0850197   -1.9390403    2.3649787  -0.03482888  -0.11667652 -0.072735381    110.57599    110.57642    110.57502    1352011.6 
  105000            0   -94977.361   0.21443438   -1.4371147    1.2189576   0.86146019   0.16993194   0.24692204 0.0093924558    110.57221    110.57217    110.57185    1351874.5 
  105500            0   -94977.372  -0.32840495   0.13658293  -0.69766905  -0.42412872  -0.10251711 -0.098565508  0.063965521    110.56073    110.56104    110.56072    1351462.2 
  106000            0   -94977.383   -1.2232567   -1.9918352  -0.76112883  -0.91680614   0.12885165   0.29999271 -0.00063785735    110.54612    110.54571    110.54587    1350914.6 
  106500            0   -94977.396  -0.33711157     0.148059  -0.41326224  -0.74613146   -0.1487062  -0.07037171 0.0079587119    110.51718    110.51698    110.51702    1349857.6 
  107000            0   -94977.404   0.05134138  -0.75008169   0.50463181   0.39947401 -0.0056795391     0.126378 -0.041840603    110.49929    110.49843    110.49876    1349189.6 
  107500            0   -94977.413   0.80107042    0.8736409    0.7465599   0.78301045 -0.053211425  -0.11444424 -0.0027616753    110.48779    110.48768     110.4871    1348775.6 
  108000            0   -94977.425  -0.96134735    2.1312695    -2.560316   -2.4549956 -0.027550155 -0.050209474 0.0029843524    110.47258     110.4751    110.47479    1348286.1 
  108500            0   -94977.446  -0.50829313  -0.71555142   0.32018073   -1.1295087   0.35186368 -0.043462547   0.11813186    110.45616    110.45665    110.45685    1347641.8 
  109000            0   -94977.462   0.81607377    1.1932835 -0.044996736    1.2999346 -0.019739285   0.12575888 -0.039770283    110.44967    110.44947    110.44912    1347380.7 
  109500            0   -94977.473   -2.6106936   -3.6726119   -1.5371735   -2.6222953 -0.004967622   -0.1336602   0.16459313    110.45357    110.45253    110.45264    1347508.6 
  110000            0   -94977.484   0.36089159 -0.031864401   0.88845678   0.22608239 -0.0085756817  -0.11931618  -0.15315594    110.45613    110.45632    110.45674    1347636.1 
  110500            0   -94977.495   0.18565703   0.39035497   0.58190624  -0.41529012 -0.063978592 -0.0047435096  -0.13665403    110.46644    110.46555    110.46623    1347990.2 
  111000            0   -94977.521   -1.7059944   -1.5830696   -3.0677088  -0.46720477   0.13712382   0.15544866  -0.13229107    110.47246    110.47329    110.47257    1348235.6 
  111500            0   -94977.531  -0.48495065  -0.59803979  -0.35410495   -0.5027072   0.13761741  0.016420122  0.066353088    110.47639    110.47604    110.47604    1348359.4 
  112000            0    -94977.54  -0.66615432  -0.28637314   0.31013386   -2.0222237  -0.12492711 0.0028467835  0.028052395    110.47944    110.48029    110.48171    1348517.8 
  112500            0   -94977.549  -0.52207877  -0.45746947 -0.061677515   -1.0470893  -0.15075323  0.066124685   -0.1328241    110.48753    110.48742    110.48745    1348773.6 
  113000            0   -94977.557   -0.9194466  -0.90472258  -0.92737554  -0.92624168   0.11810588   0.17184146  -0.20726096     110.4974    110.49815    110.49788    1349152.4 
  113500            0   -94977.564  -0.77847911   -0.8849318  -0.72707688  -0.72342865  -0.27820273  -0.13618768  0.035680984    110.50463    110.50573    110.50574    1349429.1 
  114000            0    -94977.57  -0.41788047  -0.39636041  -0.20839604  -0.64888497  -0.28572929   0.17949625  0.088080018    110.51159    110.51086    110.51159    1349648.3 
  114500            0   -94977.575  -0.53059768  -0.41746892  -0.60898837  -0.56533575 -0.041565373  -0.12744787  0.065608191    110.51219    110.51223     110.5117    1349673.7 
  115000            0   -94977.578  -0.79099957  -0.87906372  -0.78872902  -0.70520596   0.07905844   0.13009425  -0.03502624    110.51362    110.51427    110.51409    1349745.2 
  115500            0   -94977.581   -0.5271267  -0.58202944  -0.61434747  -0.38500321   0.13432927  -0.16031055  -0.16281279     110.5176      110.518    110.51777    1349884.3 
  116000            0   -94977.584  -0.53063008  -0.57539509  -0.53935307  -0.47714207  -0.34133691   -0.2050047  0.022683343    110.52005    110.51927     110.5196    1349952.2 
  116500            0   -94977.587   -0.7320155  -0.66619826  -0.79091357  -0.73893468   0.15096924   0.37448919 -0.040956735    110.51805    110.51743    110.51877      1349895 
  117000            0    -94977.59  -0.17092401 -0.048358897    -0.169499  -0.29491414 -0.073315094  -0.34174627  0.079396843     110.5176    110.51808    110.51749    1349881.9 
  117500            0   -94977.593  -0.66970783  -0.43253025  -0.46588201   -1.1107112   0.04468751  0.054372304 -0.077073982    110.51633     110.5168     110.5168    1349842.4 
  118000            0   -94977.599  -0.43912939  -0.05228379  -0.95638698  -0.30871739 -0.063285297  -0.27442665  0.017997707    110.51304    110.51282    110.51312    1349708.6 
  118500            0   -94977.605  -0.35398676  -0.19740961  -0.44170114  -0.42284954 -0.0037191176   0.25120442  0.056142505    110.50882    110.50915    110.50827      1349553 
  119000            0   -94977.612   -1.6120507   -1.0148242   -1.5202919   -2.3010359   0.25102577  0.061123857 0.0011132375    110.50131    110.50119    110.50262    1349295.1 
  119500            0   -94977.617  -0.83152063   -1.5009948   -1.1223877   0.12882062  -0.11474309 -0.0068998919   -0.1680208    110.49516    110.49542    110.49441    1349049.3 
  120000            0   -94977.623  -0.64652512   -0.4020652   -1.1083828  -0.42912734  0.031237362   0.16068824  0.087258246    110.48893    110.48874    110.48904    1348826.3 
  120500            0   -94977.627   -0.2083357  -0.34443294 -0.074193901  -0.20638026  -0.10099064   -0.1705223  0.043408894    110.48492    110.48489    110.48498    1348680.6 
  121000            0    -94977.63  -0.61587608   -0.2845818  -0.50816507   -1.0548814   0.25822852  -0.10648304  -0.12009475    110.48374    110.48407    110.48424    1348647.1 
  121500            0   -94977.633   -0.4604898  -0.49077609  -0.36272966  -0.52796364  -0.13660855  -0.14629853 -0.033409258    110.48264    110.48208    110.48253    1348588.6 
  122000            0   -94977.639 -0.097311785 -0.0023820911  -0.13737355  -0.15217971   0.13517334 -0.033184645  0.078920398    110.48138    110.48174    110.48176    1348559.7 
  122500            0   -94977.643   -0.2172924   0.40967549   0.36010035    -1.421653 -0.034904299   0.15684403  0.057211464    110.48451    110.48371    110.48461    1348656.8 
  123000            0   -94977.648  -0.16015465  -0.58406496    0.6039752  -0.50037418  0.016472121 -0.080433009  -0.10482084    110.48921    110.48937    110.48933    1348840.9 
  123500            0   -94977.652   -0.1739904  -0.22850155  -0.11131018  -0.18215946  0.012176649  0.032496742  0.024800883     110.4962    110.49508    110.49556    1349071.9 
  124000            0   -94977.656  -0.46889555 -0.075596227  -0.68143246  -0.64965795  0.085233582  -0.10801314   0.10339269    110.50122    110.50187    110.50158    1349289.7 
  124500            0   -94977.659  -0.32411963  -0.38461485  -0.30107413  -0.28666992    -0.038277 -0.062671035 -0.094037382    110.50462    110.50444    110.50455    1349398.9 
  125000            0   -94977.662  -0.66799525   -1.0938062  -0.13974095  -0.77043863  0.025967039   0.12925179 -0.028294654    110.50719    110.50712    110.50737    1349497.4 
  125500            0   -94977.663  -0.14583799  -0.14831823 -0.069820583  -0.21937515 -0.078855739  -0.17764748   0.18722197    110.50864    110.50882    110.50889    1349554.3 
  126000            0   -94977.665  -0.13249306 -0.055660568  -0.22817902  -0.11363958  0.014997835   0.10440896 -0.045464604    110.50954    110.50914    110.50945    1349576.1 
  126500            0   -94977.666  -0.18371688 -0.095285765  -0.27317495  -0.18268993  0.044654078 -0.088074675 -0.031362529    110.50956    110.50969    110.50906    1349578.2 
  127000            0   -94977.667  -0.14594121 -0.027182918  -0.13438037  -0.27626035   0.08617058 -0.032597809 -0.032295737    110.50771    110.50783    110.50819    1349522.5 
  127500            0   -94977.668  -0.37968068  -0.33483446  -0.34349855  -0.46070903 -0.098080219 -0.016562108   0.02346117    110.50728    110.50676    110.50681    1349487.3 
  128000            0   -94977.669  -0.19415689 -0.013096393   -0.2196715  -0.34970278  0.031259462  0.042690249 -0.062732816    110.50574    110.50611    110.50604    1349451.1 
  128500            0    -94977.67  -0.38603781  -0.36760151  -0.39972501  -0.39078691  0.044917862  -0.04336662 -0.059718647    110.50334    110.50394     110.5036    1349365.5 
  129000            0   -94977.672  -0.23979218  -0.39795688  -0.29076918 -0.030650492 -0.092717877   0.14795548   0.07253091    110.49923    110.49891     110.4991    1349198.9 
  129500            0   -94977.674  -0.20245357  0.075929092  -0.25883746  -0.42445234  0.012018542 -0.027279103  0.012445099    110.49473    110.49531    110.49548    1349055.9 
  130000            0   -94977.677  -0.12170448  0.042118497 -0.026116163  -0.38111578 -0.055315318 -0.054633801 -0.042843862    110.48883    110.48888    110.48881    1348823.9 
  130500            0    -94977.68  -0.14221003  -0.09972922  -0.12310768  -0.20379319 0.0046068416   0.13033916   0.11155445    110.48695    110.48612    110.48679    1348742.6 
  131000            0   -94977.684  -0.19695538  0.051470641 -0.013658558  -0.62867823 0.0065144993 -0.089246289  -0.11226311     110.4837    110.48407    110.48364    1348639.5 
  131500            0   -94977.687  -0.15385186    1.0381849  -0.40556803   -1.0941724 -0.028071845   -0.1156047   0.05196084    110.48353    110.48378    110.48426    1348641.4 
  132000            0    -94977.69 -0.047583875  -0.10909752  -0.06476787  0.031113761  0.008274063 -0.071844275 -0.055191895    110.48572    110.48577    110.48547    1348707.2 
  132500            0   -94977.697 -0.057757905  0.007906191  -0.18790794 0.0067280284  0.016420475 -0.027717416 -0.012568114     110.4876    110.48773    110.48757    1348779.6 
  133000            0     -94977.7  -0.88141413  -0.84122069   -0.1578334   -1.6451883   0.03902908 -0.030404313 -0.011848822    110.48994    110.48968    110.49019    1348864.2 
  133500            0   -94977.703  -0.85049793  -0.50589827   -1.1458773  -0.89971823 -0.032359878 -0.069249605   0.01794381    110.49333    110.49385    110.49366    1348998.7 
  134000            0   -94977.704  -0.47239854  -0.64628458  -0.18499194  -0.58591909 -0.012687933 -0.024015892 0.00035745751    110.49498    110.49482    110.49503    1349047.5 
  134500            0   -94977.704 -0.047268582 -0.048031171 -0.041932619 -0.051841955  0.043701592  0.019278796   0.02169899    110.49585    110.49582    110.49576    1349079.2 
  135000            0   -94977.705  -0.11860367  -0.18964426  -0.29923253   0.13306578 -0.025297378 -0.0026144365 -0.017713325    110.49659    110.49671    110.49643    1349107.3 
  135500            0   -94977.705 -0.085648509 -0.080930867 -0.083017907 -0.092996753 0.0082599748 -0.040398946  0.025558608    110.49706    110.49722    110.49706      1349127 
  136000            0   -94977.705   -0.1961833  -0.40865654  -0.15135054 -0.028542807 0.0092646823 -0.027259111  0.005927868    110.49713    110.49709    110.49706    1349126.2 
  136500            0   -94977.705  -0.19668941  -0.25533021  -0.13637808  -0.19835993 -0.0024368348 -0.036293167 -0.011434982    110.49713    110.49719    110.49708    1349127.7 
  137000            0   -94977.706  -0.31493263  -0.35482728 -0.062801566  -0.52716905 -0.0094373209  0.012872136 -0.019007167    110.49676    110.49675    110.49687    1349115.1 
  137500            0   -94977.706  -0.10398563  0.087235001 -0.050637235  -0.34855464 0.0042231303 -0.035037178  0.030082308    110.49612     110.4962    110.49635    1349094.3 
  138000            0   -94977.706 -0.064652584  0.012184571  -0.13846945 -0.067672873  0.038480512  0.019874659 -0.034778258    110.49502    110.49521    110.49521    1349054.9 
  138500            0   -94977.707  -0.13973231  -0.15825165  -0.36655235   0.10560708 -0.024120668 -0.015281166  0.045478463    110.49397    110.49396    110.49369    1349008.3 
  139000            0   -94977.707 -0.077715914  -0.16076545 -0.037724827 -0.034657463 0.0076605257  0.039499359 -0.016418911     110.4933    110.49318    110.49319    1348984.5 
  139500            0   -94977.708  -0.17102831  -0.13439645 -0.095655329  -0.28303317  0.027597264 -0.026499059  0.033394186    110.49247    110.49231    110.49251    1348955.4 
  140000            0   -94977.708 -0.098232363 -0.050649227   -0.2034465 -0.040601364  0.006678912 -0.0086395888 -0.013690464    110.49161    110.49162    110.49163    1348925.8 
  140500            0   -94977.708 -0.079771975 -0.046494403  -0.10971947 -0.083102048 -0.034929253 -0.034937095  0.020165683    110.49009    110.49016    110.49016    1348871.3 
  141000            0   -94977.708  -0.15244711 -0.0057862905  -0.22644029  -0.22511475 -0.080271361  0.026840439 -0.0056915972    110.48777    110.48776    110.48775    1348784.4 
  141500            0   -94977.709  -0.26481861  -0.38436205  -0.24050949  -0.16958428 -0.023094399  0.021559654 0.0011961264    110.48679    110.48686     110.4867    1348748.5 
  142000            0   -94977.709  -0.14477895  -0.41704479  -0.18239595   0.16510389 0.0085716267  0.048672977 -0.0052541846    110.48637    110.48629    110.48609      1348729 
  142500            0    -94977.71  -0.31176722  -0.18655464 -0.078138496  -0.67060853 -0.0059253827 -0.021065083 -0.010922824     110.4864    110.48631    110.48643    1348733.7 
  143000            0    -94977.71  -0.08108324 -0.091505551  -0.12589922  -0.02584495  0.023040325 -0.019101878  0.011280408    110.48698    110.48691    110.48674    1348751.9 
  143500            0   -94977.711  -0.12260693   -0.1275313 -0.073158925  -0.16713057  0.065447619    0.0659874  0.010071732    110.48818    110.48788    110.48822    1348796.6 
  144000            0   -94977.712  -0.20028103 -0.028120175   -0.4296467  -0.14307622  0.023520744 -0.056303789  0.045250632    110.48977    110.48989    110.48984    1348860.4 
  144500            0   -94977.713 -0.092016546  -0.10754874 -0.083937238  -0.08456366 -0.026167392   0.06033701  0.046703284    110.49142    110.49156    110.49156    1348921.6 
  145000            0   -94977.713 -0.093340834  -0.07870857 -0.042730799  -0.15858313 -0.040038622  0.020181386 -0.022935169    110.49299    110.49317    110.49304    1348978.6 
  145500            0   -94977.714  -0.17762837  -0.25042106  -0.12523219  -0.15723186 0.00011968505  0.028122056 -0.037435072    110.49413    110.49425    110.49411    1349018.7 
  146000            0   -94977.715   -0.1031608  -0.11494494 -0.069238322  -0.12529914 -0.060985778  0.012820737  0.023316143    110.49526    110.49511    110.49514    1349055.7 
  146500            0   -94977.715  -0.33492064  -0.45631432   -0.4846896 -0.063757983 -3.1723998e-05  0.076916447  0.023305572    110.49591    110.49635    110.49594    1349088.5 
  147000            0   -94977.716  -0.18971626  -0.18473204  -0.18931888  -0.19509788 0.0049726943 -0.050280927 -0.018693706    110.49582    110.49649    110.49609    1349090.9 
  147500            0   -94977.719   0.35068351   0.34028448   0.36240508   0.34936098  0.049404217  0.028688131 -0.032809092     110.4962    110.49629    110.49622    1349094.8 
  148000            0   -94977.725   -1.0188688  -0.99900253  -0.82843271   -1.2291713  0.031255648  0.020575922  0.017920381    110.49427    110.49423    110.49437    1349023.6 
  148500            0   -94977.726   -0.1072709   -0.1664159  -0.25441342  0.099016614  0.017822349 -0.021825167   -0.0189864    110.49203    110.49211    110.49204    1348941.8 
  149000            0   -94977.728 -0.038441808 -0.022900247   0.01298673  -0.10541191 0.0019179137  -0.02648613 -0.057322428    110.48715    110.48716    110.48714      1348762 
  149500            0   -94977.728   -0.3297568  -0.19551887  -0.46815564   -0.3255959  0.002666441 0.0080290843 -0.001880717    110.48555    110.48562    110.48552    1348703.9 
  150000            0   -94977.729  -0.18760542 -0.025965407  -0.18721912  -0.34963173 -0.0060133247 -0.0018047711 -0.030388571     110.4853    110.48536    110.48548    1348697.2 
  150500            0   -94977.729  -0.29718065  -0.33255653  -0.17551909  -0.38346635 -0.010393213 -0.0043283108 -0.026542459     110.4853    110.48525    110.48525    1348692.9 
  151000            0   -94977.729 -0.045287542 -0.073657376 -0.0049781465 -0.057227102  0.015286739  0.029190336 -0.007611747     110.4858    110.48581    110.48586    1348713.4 
  151500            0   -94977.729  -0.38762328  -0.22643249   -0.4626616  -0.47377575 -0.011845691 -0.078043942 -0.0050718372    110.48737    110.48748    110.48727    1348770.1 
  152000            0    -94977.73   -0.0107991 0.00047116822 -0.012907078  -0.01996139 -0.013550934 0.0072891185 0.0024529308    110.48894    110.48867    110.48888    1348823.4 
  152500            0    -94977.73  -0.11196926  -0.26590297 -0.014853579 -0.055151216 -0.012966776 -0.037392785 -0.018960983    110.48991    110.49006    110.48993      1348865 
  153000            0   -94977.732   -0.1301118  -0.11822306 -0.081076229  -0.19103611  0.060380974  0.054494614 -0.0057007662    110.49034    110.49053    110.49054    1348883.6 
  153500            0   -94977.734  -0.11870871   0.12208626   0.22820334  -0.70641574  0.044227343  0.048836212 -0.014557549    110.49106    110.49112    110.49129    1348908.7 
  154000            0   -94977.735  -0.59575442  -0.46496888  -0.82067175  -0.50162262 -0.0013597637  0.018217496  0.025391405    110.49032    110.49073    110.49073    1348888.1 
  154500            0   -94977.736  -0.49871167  -0.70876474  -0.54610502  -0.24126526  0.027322505 -0.022762065  -0.03004495    110.48972    110.48948    110.48925    1348847.5 
  155000            0   -94977.738  -0.76380557  -0.43642182   -1.1448761  -0.71011877 -0.063952552  -0.11437786 -0.045620973    110.48702    110.48683    110.48724    1348757.5 
  155500            0   -94977.741  -0.18390406  -0.16225766  -0.23027013  -0.15918439    0.1110134 -0.075998013  0.068578586    110.48429    110.48377    110.48412    1348648.8 
  156000            0   -94977.751  -0.42284307  -0.66036953   -1.2995426   0.69138286  -0.11592147  -0.20740845  -0.43328169     110.4728    110.47331    110.47266      1348241 
  156500            0   -94977.782   -5.3907574   -3.6715223   -6.7163453   -5.7844045   0.14309162   0.82927245   0.18422347    110.42296     110.4261    110.42292    1346450.3 
  157000            0   -94977.826  -0.93798514   -1.8689212    2.8954646   -3.8404989  -0.53377242  0.064487373  0.019418316    110.30513    110.30847    110.30625    1342161.2 
  157500            0   -94977.851   -1.2102316   0.39602425   -1.2131662   -2.8135528  -0.20397605   0.60378557 -0.093881614    110.22478    110.22621    110.22567    1339204.3 
  158000            0   -94977.868  -0.14668428   0.13274903  0.042360814  -0.61516268  -0.26678474 -0.077509857   0.34232743    110.16257    110.16435    110.16356    1336943.7 
  158500            0   -94977.878  -0.54254755  -0.54034137  -0.76927164  -0.31802965  -0.40884237  -0.18829766 -0.014181283    110.12633    110.12423    110.12562      1335557 
  159000            0   -94977.887 -0.056378899  -0.36821732   0.55618346  -0.35710284  0.043969097  -0.26639601   0.28239283    110.09269    110.09032    110.09322    1334345.1 
  159500            0   -94977.895   0.32918048 -0.088261532  -0.15762978    1.2334327   0.25859203  -0.51680846    0.2806576    110.06369    110.06246    110.06304    1333290.5 
  160000            0   -94977.901  -0.57952238  -0.73238091  -0.42001535  -0.58617089   0.31677795   -0.1734835  -0.18332263    110.03842    110.03606    110.03838    1332366.1 
  160500            0   -94977.906    1.6132768     1.704082    1.6375607    1.4981876   0.34678051   0.10708713  0.046739451    110.01989    110.02093    110.02015      1331738 
  161000            0   -94977.911  0.036738661  -0.50359947   0.29216133   0.32165413   0.25084476   0.16704178  0.081236629    109.99799    109.99875    109.99732    1330928.2 
  161500            0   -94977.916 -0.030689526  0.024871296  -0.40148366   0.28454378  -0.24555297   0.30527852   -0.3149423    109.97572    109.97702    109.97603    1330138.3 
  162000            0    -94977.92    1.1617315   0.80665274    1.0519569    1.6265849  -0.51009792   0.14392909  0.027874915    109.95485    109.95693    109.95432    1329380.4 
  162500            0   -94977.924  -0.16400232  -0.69104538   0.26905114 -0.070012731  -0.25996737  -0.14914036    0.1857769    109.93773    109.93841    109.93708    1328741.2 
  163000            0   -94977.927   0.62125036    1.2262175    1.2589023  -0.62136871  -0.45307686  -0.22932301 -0.029621256    109.92207    109.92286     109.9233    1328197.6 
  163500            0   -94977.931  -0.85847123    -1.064893 -0.071448822   -1.4390718 -0.036391591  -0.07168711   0.12953165     109.9064    109.90546    109.90662    1327596.5 
  164000            0   -94977.935   0.74837378   0.82959691    0.5268642   0.88866023   0.57711777  -0.29954217   0.30713207     109.8892    109.88846    109.88941    1326975.6 
  164500            0   -94977.939  -0.52986359  -0.58728756  -0.49495093  -0.50735228    0.2753424    0.2069237  -0.21509023    109.87029    109.86908    109.87124      1326294 
  165000            0   -94977.946  -0.17282076   0.80471492   -1.2660848 -0.057092426   0.51738139   0.24570653 -0.073774841    109.84836    109.84909    109.84867    1325515.6 
  165500            0   -94977.951    1.6976432    1.6781034    1.8010004    1.6138257  -0.18629517   0.11787249  -0.42101466    109.83079    109.83014    109.83085    1324860.1 
  166000            0   -94977.956  -0.55162641  -0.61784142  -0.47281965  -0.56421817  -0.29761732  -0.11829268  0.082349699    109.81744    109.81881    109.81695    1324394.7 
  166500            0    -94977.96  0.064802123   0.63693417   -1.2739344   0.83140664  -0.16496834  -0.22806912  -0.12617439    109.80921    109.80969    109.80841    1324082.5 
  167000            0   -94978.055   -3.6860292   -4.2826416   -1.5113042   -5.2641418    0.3440077   0.36657768  -0.16585251    109.81216    109.80975    109.81224      1324165 
  167500            0   -94978.199   -0.2155299  -0.47275226   0.13476136  -0.30859878  0.033319429   0.27820516  -0.57206743    109.81195    109.80859    109.81085    1324131.5 
  168000            0   -94978.344  -0.29132828  -0.18455798  -0.35679966   -0.3326272  -0.31778752  -0.44902139   0.33245897    109.79161    109.79211    109.79126    1323451.6 
  168500            0   -94978.492   -5.8110525   -7.2958175   -4.1732239   -5.9641161   0.14341398   0.62542068    0.0476526    109.72356    109.72386    109.72372      1320996 
  169000            0   -94978.559   -3.5356372   -5.4895475     -5.08005 -0.037314003   0.10646954    0.3711419  -0.43103797     109.6935    109.69327    109.69194    1319883.5 
  169500            0   -94978.604  -0.14505864  0.091323265  -0.46219672 -0.064302466 -0.050309672 -0.020726174  -0.77639302    109.67913     109.6782    109.67981    1319383.3 
  170000            0   -94978.624  -0.82280892   -1.1495131   -0.5979157  -0.72099797   0.11792458  -0.73089293  0.056493929    109.67965    109.67899     109.6789    1319388.2 
  170500            0   -94978.637  -0.97819236  -0.80900076  -0.74371572   -1.3818606  -0.38909778  -0.49326626  -0.15243878    109.68162    109.68065    109.68099    1319456.9 
  171000            0   -94978.645  -0.45706649  -0.64808537  -0.38457556  -0.33853854   0.27568747   0.29707048 -0.0097711874    109.69091    109.69055    109.69026    1319799.4 
  171500            0   -94978.651  -0.37719546  -0.30201866   -0.2412437  -0.58832403  -0.17453086   0.32720709  -0.24399023    109.70106    109.69992    109.70085    1320161.8 
  172000            0   -94978.658  -0.35190343  -0.33589018  -0.31692404  -0.40289607   0.23429877   0.36997312   0.41641843    109.71434    109.71457    109.71441      1320661 
  172500            0   -94978.663  -0.36844806  -0.35698614  -0.33460514  -0.41375289  -0.43376073  -0.16853755   0.31091343    109.72626    109.72692    109.72756    1321111.5 
  173000            0    -94978.67  -0.37469616   0.47197171    -1.003573  -0.59248719 -0.049702629  -0.49169271   0.24357188    109.73943    109.74001    109.74035    1321581.9 
  173500            0   -94978.676  -0.57754846  -0.40981871  -0.70723512  -0.61559155 -0.041871708  -0.25399419  -0.38873582    109.74674    109.74762    109.74813    1321855.2 
  174000            0   -94978.679   -1.0948776   -1.9097485   -1.2190817  -0.15580274  -0.18964144  -0.64662129  -0.19384994    109.74999    109.74935    109.74925    1321928.6 
  174500            0   -94978.682  -0.22907319     -0.23317  -0.12407448  -0.32997511   0.25955326   0.19179326  -0.12010685    109.74578    109.74586    109.74595    1321796.2 
  175000            0   -94978.686  -0.69918672  -0.35273115  -0.56587719   -1.1789518   0.58570196   0.42215382   -0.2223842    109.74135    109.73974    109.74026    1321600.6 
  175500            0   -94978.689  -0.44399492  0.028374677  -0.25552084   -1.1048386 -0.0025461486   0.33945172   0.24181338    109.73401    109.73379    109.73437    1321369.5 
  176000            0   -94978.691   -0.2982265  -0.35875537  -0.27799738  -0.25792677   -0.2091336   0.30162113   0.15717793    109.73188    109.73256    109.73168    1321296.8 
  176500            0   -94978.694  -0.28852182  -0.13585761  -0.28019919  -0.44950866  -0.39042483  -0.28109285    0.2470573    109.73223    109.73266    109.73193    1321305.2 
  177000            0   -94978.699  -0.16900398  -0.18737937  -0.35637857  0.036746008  -0.88324282   -1.2735834   0.24030924    109.73121    109.73392    109.73281    1321318.6 
  177500            0   -94978.705  -0.58687708  -0.95450156  -0.39014182  -0.41598786  0.028639729  -0.34895902  -0.16990774    109.73711    109.73735     109.7387      1321502 
  178000            0   -94978.711  -0.68755037  -0.87908559  -0.30979725  -0.87376829   0.48451789  -0.68184755  -0.36224146    109.74605    109.74699    109.74669      1321822 
  178500            0   -94978.718  -0.62908768  -0.56977437  -0.57698149  -0.74050717   0.78789991  -0.16477866  -0.54588052    109.75649    109.75436    109.75653      1322155 
  179000            0   -94978.724  -0.30124014    0.1210212   -0.7674446  -0.25729702    1.0018159   0.36663223  -0.43237985    109.76947    109.76631    109.76699    1322581.3 
  179500            0   -94978.729  -0.30290392  -0.41046667  -0.20470959  -0.29353548   0.49393185 -0.018366022 -0.002700394    109.77749    109.77599    109.77649    1322909.1 
  180000            0   -94978.734  -0.21380202  0.026684957  -0.63149832 -0.036592705  -0.48304856   0.24606054  -0.18869414    109.78857    109.78758    109.78749    1323314.9 
  180500            0    -94978.74  -0.31932186  -0.46096326  -0.57081859  0.073816264  -0.62998401     0.644153  0.057503769    109.79698    109.80144    109.79949    1323728.1 
  181000            0   -94978.748  -0.33395957  -0.34860045  -0.41774718   -0.2355311   -0.7675149  -0.34569686    1.3991582    109.81381    109.81753    109.81543      1324317 
  181500            0    -94978.76   -2.3080989   -2.2254737   -3.1717254   -1.5270975   -1.5415982   -0.9315536    1.1215032     109.8426    109.84473    109.84475    1325346.2 
  182000            0   -94978.778   -2.4179155   -3.0002797   -3.0214702   -1.2319965  0.082173062    1.1062819    1.0463204     109.8848    109.88382    109.88547    1326818.9 
  182500            0     -94978.8  -0.96179158   -2.3887001   0.83080914   -1.3274838   0.14534017  -0.48782186    1.6257448    109.92932    109.92709    109.93152    1328435.6 
  183000            0   -94978.824   -2.0867738   -2.8439752    -1.130306   -2.2860403   0.85520032    1.2663846  -0.77885826    109.98239    109.98058    109.98436    1330362.8 
  183500            0   -94978.847  -0.42804875  -0.42759079   -0.2823973  -0.57415817   0.21734641 0.0094176536   -1.6008481    110.02974    110.02905    110.03167    1332094.9 
  184000            0   -94978.861   -0.6594263   -1.0911135  -0.46721284  -0.41995255   0.68736601   -1.1187401  -0.95735838    110.06099    110.06323    110.06487    1333289.3 
  184500            0    -94978.93  0.017384343 -0.011177591 -0.038332962   0.10166358  0.047960108  -0.66724501  -0.50318469    110.06884    110.06996    110.07033    1333532.1 
  185000            0    -94979.04   -6.4220189   -3.2615977   -9.3682357   -6.6362233  -0.48595025   0.57309373   0.52766634    110.04539    110.04934    110.04775    1332724.7 
  185500            0   -94979.082   0.99093347    1.0961612     1.108619   0.76802013    0.1839789  -0.34151627 -0.068406506    110.05241    110.05152    110.05148    1332881.4 
  186000            0   -94979.094   0.15251638   0.13610256   0.19879806   0.12264852   0.43177239  -0.17663752  -0.58762053    110.05953    110.05825    110.05819    1333130.4 
  186500            0   -94979.103    0.4413855   0.38868145   0.64630535   0.28916969  0.028777845  -0.34719714  -0.44179623    110.06493    110.06478    110.06564    1333365.1 
  187000            0    -94979.11   0.67706766   0.68250285   0.74892587   0.59977425  -0.36409495  -0.54251823   0.17128872     110.0662    110.06718    110.06862    1333445.7 
  187500            0   -94979.119   0.40688919 -0.066614577   0.46144712   0.82583504  -0.47141657   0.55089519   0.68557006     110.0667    110.06773    110.06771    1333447.4 
  188000            0   -94979.124   0.85714355   0.53857764   0.52756934    1.5052837 -0.010414627   0.90420423   0.87846582    110.06505    110.06814    110.06681    1333421.4 
  188500            0   -94979.128   0.36061665   0.31487769   0.39860729   0.36836496  -0.10574355    0.7560757   0.32447915    110.06354    110.06475    110.06553    1333346.6 
  189000            0   -94979.135    0.9965303   0.10642054    2.2942328   0.58893757  -0.21138455 -0.039808829  -0.49355683    110.05869    110.05717    110.05911    1333118.2 
  189500            0   -94979.141   0.41033946   0.35296296   0.81664826  0.061407168   0.23027274   -1.1618191  -0.60948579    110.05546    110.05392    110.05526    1332993.1 
  190000            0   -94979.147   0.32309553   0.15695203   0.30032735    0.5120072   0.57112521   -1.4737607    -1.579495    110.05292    110.04958    110.05062    1332853.6 
  190500            0   -94979.155   0.35148264   0.34693195   0.74444079 -0.036924821  -0.72363748   -1.7689744    -1.061583    110.04626    110.04465    110.04438    1332637.8 
  191000            0   -94979.161    1.5914813    1.0871899    2.2322188     1.455035  0.047076605   -1.3922339  -0.41318063    110.04176    110.04111    110.04116    1332501.3 
  191500            0   -94979.167   0.46703884   0.39287799    0.2855469   0.72269162   0.61874317  0.080437765 -0.041566987     110.0405    110.04136     110.0403    1332478.6 
  192000            0   -94979.172   0.50073422 -0.034904451   0.66095614   0.87615096   -0.1422309   0.93175632   0.43608221    110.04202     110.0425    110.04073    1332516.1 
  192500            0   -94979.176   0.63941193   0.97708043    1.4616339  -0.52047859   0.18342813    1.4919535    0.3197117    110.04338    110.04345    110.04274    1332568.5 
  193000            0    -94979.18    1.3130923    1.1694326    1.9920519   0.77779236   0.72326241    1.3978396   0.47973666    110.04683    110.04779    110.04561    1332697.6 
  193500            0   -94979.184   0.50571485    1.2077688  -0.56709428   0.87647005    0.3729768     0.556228   0.58957237    110.05217    110.05356    110.05092    1332896.4 
  194000            0   -94979.188   0.26844555  -0.12472359   0.41809265    0.5119676   -0.2434844  -0.13658866   0.33882824    110.05652     110.0562     110.0552    1333032.8 
  194500            0   -94979.192   0.43770228   0.40802724   0.42391183   0.48116775  -0.16799763  -0.50235333   0.15455199    110.06128    110.06053    110.06047    1333206.9 
  195000            0   -94979.195   0.37778384   0.42775702   0.14671847   0.55887604  0.073753914   -0.4674852  -0.14587165    110.06475    110.06407    110.06447    1333340.1 
  195500            0   -94979.197   0.55731892   0.51767332   0.43811838   0.71616505  0.045718673   -0.7075913  -0.22162687    110.06646    110.06506     110.0654    1333384.2 
  196000            0     -94979.2    0.4102368   0.42809906    0.4055466   0.39706475 -0.056288895  -0.57454224  -0.43154994    110.06603    110.06474    110.06615    1333384.1 
  196500            0   -94979.203   0.22788795   0.48441645   0.10346102  0.095786366   0.35938955   0.41237483   -0.8458075    110.06385    110.06326    110.06534    1333329.9 
  197000            0   -94979.207   0.33151045   0.26229493   0.48823163   0.24400479   0.32799253   0.16025848  -0.47303793    110.06251    110.06118    110.06286    1333258.5 
  197500            0   -94979.209   0.50625286   0.35441374    1.3372682  -0.17292339 -0.077072602  -0.08398474  -0.31184217    110.05944    110.05813    110.05965    1333145.6 
  198000            0   -94979.212   0.87849493    1.1817633   0.89105127   0.56267019  -0.37720655   0.18295681  0.069749946    110.05381    110.05426    110.05403    1332962.3 
  198500            0   -94979.214   0.18314782   0.03174968   0.27952443   0.23816935  -0.37180786   0.30442425   0.11984881    110.04903    110.04993    110.04878    1332788.4 
  199000            0   -94979.215   0.41522895     0.406864   0.70561352   0.13320934 -0.075883057   0.12592475   0.28377403    110.04508    110.04644    110.04562    1332660.1 
  199500            0   -94979.217   0.79157477    0.4895687    1.2409661   0.64418955   -0.2093293   0.12402287    0.5037355    110.04144    110.04212    110.04154    1332514.3 
  200000            0   -94979.218   0.31423255   0.54122707   0.29165059   0.10981998  -0.18928509   0.35515816   0.29602293    110.03745    110.03849    110.03792    1332378.1 
  200500            0    -94979.22   0.28064766   0.56314621   0.48940817   -0.2106114   0.22624401   0.34413171 -0.052871348    110.03501    110.03486    110.03554    1332275.8 
  201000            0    -94979.22   0.16636167   0.17159868   0.19493047   0.13255585   0.21859804 -0.019734465  -0.15391637    110.03385    110.03316    110.03426    1332225.8 
  201500            0   -94979.221   0.28111362   0.32431342   0.17009216   0.34893528  -0.14280526  -0.39116527  0.060837927     110.0344     110.0335    110.03376    1332230.5 
  202000            0   -94979.222   0.24881268    0.4883599  -0.16639604   0.42447417  -0.22632439  -0.20511128  -0.04119065    110.03566    110.03499    110.03462    1332274.1 
  202500            0   -94979.223   0.44127928   0.23059117   0.62677802   0.46646864  -0.11577122  -0.11076005  -0.21545421    110.03701    110.03576    110.03603    1332316.8 
  203000            0   -94979.223   0.21153955   0.16210542   0.22666418   0.24584904 -0.041083441 -0.077938487  -0.21746509    110.03785    110.03741    110.03699    1332358.5 
  203500            0   -94979.224   0.41814446   0.58456467   0.44618239   0.22368634 -0.011492317   0.17255294 -0.034166211    110.03937    110.03983    110.03837    1332423.1 
  204000            0   -94979.225   0.49540765   0.38054306   0.37981079    0.7258691  0.042998799   0.36278162  0.012617257    110.04171    110.04275    110.04111    1332520.1 
  204500            0   -94979.225   0.14222562   0.13930351    0.1527488   0.13462455   0.18423944   0.38384921 -0.076086768    110.04385     110.0447    110.04384    1332602.6 
  205000            0   -94979.226   0.13925723  0.097601118   0.17729693   0.14287363   0.17531797  0.099047246  0.093155653    110.04436    110.04522    110.04457    1332623.9 
  205500            0   -94979.226   0.28721168  0.089428808   0.42931947   0.34288676   0.10840987 -0.035133931   0.21780921    110.04455    110.04507    110.04457    1332624.3 
  206000            0   -94979.226   0.30953254   0.17558914   0.41589957    0.3371089   0.11010405 0.00091205097   0.17876304    110.04466    110.04434    110.04433    1332613.9 
  206500            0   -94979.227   0.32119314   0.48834218   0.21505454    0.2601827  0.072833504   -0.1423931   0.16775089     110.0439    110.04301    110.04344    1332577.8 
  207000            0   -94979.227   0.19507934   0.25860406   0.16908438   0.15754957 -0.066078005   -0.2062792  0.070438103     110.0426    110.04176    110.04216    1332531.5 
  207500            0   -94979.228     0.129892   0.12801399   0.13017081    0.1314912 -0.086436879 0.0079094852  -0.15467119    110.04072    110.03972     110.0403    1332461.5 
  208000            0   -94979.228   0.19467655  0.072113713  0.094094965   0.41782096 0.0072478054   0.34103943  -0.34783365    110.03834    110.03666    110.03784    1332365.9 
  208500            0   -94979.229   0.23832614   0.19233551   0.53597378  -0.01333088 -0.017311582   0.47663388  -0.38691703    110.03481    110.03299    110.03439    1332236.9 
  209000            0    -94979.23   0.36207462   0.79444527    0.1033305   0.18844809  -0.13741146    0.4525829  -0.50770552     110.0312    110.03041    110.03041    1332113.7 
  209500            0    -94979.23   0.26356321   0.24446875   0.33704148   0.20917939  -0.16050198   0.15892991  -0.47816129    110.02874    110.02739    110.02759    1332013.2 
  210000            0   -94979.231   0.21828584   0.22029084    0.1371662   0.29740048  -0.21746141  -0.53864246   0.14513304    110.02542    110.02439    110.02466    1331901.3 
  210500            0   -94979.232   0.34223912 -0.069511332   0.74303319   0.35319549  -0.30045649  -0.89345862   0.39793453    110.02236    110.02194    110.02158    1331797.4 
  211000            0   -94979.234   0.50900817   0.28660702   0.25869337   0.98172412   -0.1780692   -1.0531437   0.29561851     110.0195    110.01984    110.01907    1331706.9 
  211500            0   -94979.235   0.66285603   0.91972165   0.92108345   0.14776299   0.38706729  -0.67789289   0.19721138    110.01669    110.01748     110.0186    1331638.6 
  212000            0   -94979.236   0.47952451   0.72020019   0.20980627   0.50856707   0.65359523   0.25761664   0.13114512    110.01549    110.01694    110.01851    1331616.5 
  212500            0   -94979.238   0.37079164   0.46219667   0.10745835    0.5427199   0.58673073   0.64256781 -0.071147946    110.01494    110.01682    110.01813    1331603.8 
  213000            0   -94979.239     0.188244   0.10989609   0.19639726   0.25843866   0.46939838   0.46533514  -0.22857908    110.01502    110.01657    110.01849    1331605.9 
  213500            0   -94979.241   0.33313431   0.37909848   0.24959123   0.37071322   0.10313569  0.032569651 -0.059155558    110.01552    110.01702    110.01846    1331617.1 
  214000            0   -94979.242   0.21548101   0.28695071   0.33591853  0.023573805  -0.34977838  -0.16594065   0.11503273    110.01645    110.01822    110.01882    1331647.4 
  214500            0   -94979.244   0.48441086   0.46224129   0.84217528   0.14881601  -0.64929553  -0.25312932 -0.021765165    110.01766    110.01952    110.01921    1331682.4 
  215000            0   -94979.246   0.20254169   0.18518047      0.19084    0.2316046  -0.96114748   -0.5229365   0.16793253    110.01923    110.02082    110.01862    1331710.1 
  215500            0   -94979.248   0.35766345  0.089485107    0.5085846   0.47492064   -0.9300862  -0.67114735   0.43299022    110.01998    110.02117    110.01805    1331716.3 
  216000            0   -94979.249   0.52671791   0.29151034   0.77600547   0.51263792  -0.52484402  -0.57588201   0.44457274    110.01951    110.01986    110.01656    1331676.9 
  216500            0   -94979.251    0.2040917  0.079169104   0.36215168   0.17095432   0.11290909   0.10559321   0.11190228    110.01864    110.01805    110.01509    1331626.6 
  217000            0   -94979.252   0.32487783   0.33385091   0.12875739    0.5120252   0.49258205   0.57086226   -0.3552793    110.01678    110.01625    110.01492    1331580.3 
  217500            0   -94979.253   0.35097039   0.21310579   0.34408227   0.49572311   0.68185769    0.8326053  -0.58208252    110.01494    110.01458    110.01441    1331531.6 
[...]
minimize 0 ${ftol} ${maxiter} ${maxeval}
minimize 0 1e-10 ${maxiter} ${maxeval}
minimize 0 1e-10 10000000 ${maxeval}
minimize 0 1e-10 10000000 10000000
Neighbor list info ...
  1 neighbor list requests
  update every 1 steps, delay 0 steps, check yes
  master list distance cutoff = 7
Memory usage per processor = 3.97832 Mbytes
Step Temp PotEng Press Pxx Pyy Pzz Pxy Pxz Pyz Lx Ly Lz Volume 
 5030239            0   -94979.277 -0.0022484121  0.015021799 -0.0049612446 -0.016805791    2.2458661 0.0075520755 0.0090684893     110.0008     110.0008     110.0008    1331028.9 
 5030500            0   -94979.277 8.6257105e-05 8.4115012e-05 3.6340495e-05 0.00013831581   0.73011864 -5.4570467e-05 5.8770539e-05     110.0008     110.0008     110.0008    1331028.9 
 5031000            0   -94979.277 -8.6950971e-05 -0.00013488517 -7.2204867e-05 -5.376287e-05   0.65930219 -3.91378e-06 5.8621546e-07     110.0008     110.0008     110.0008    1331028.9 
 5031500            0   -94979.277 -7.8873424e-05 -9.5339346e-05 -8.5529758e-05 -5.5751169e-05   0.65837725 2.1982679e-06 1.1388819e-06     110.0008     110.0008     110.0008    1331028.9 
 5032000            0   -94979.277 -6.8141908e-05 -9.1953623e-05 -7.1814818e-05 -4.0657282e-05   0.65835948 -7.9763302e-09 -5.7291485e-08     110.0008     110.0008     110.0008    1331028.9 
 5032500            0   -94979.277 -6.7041776e-05 -9.0572407e-05 -7.0795717e-05 -3.9757204e-05   0.65835949 -6.3779783e-10 1.3620483e-11     110.0008     110.0008     110.0008    1331028.9 
 5033000            0   -94979.277 -6.6939531e-05 -9.0534971e-05 -7.0695876e-05 -3.9587747e-05   0.65835949 -2.7441959e-11 -5.9280105e-11     110.0008     110.0008     110.0008    1331028.9 
 5033173            0   -94979.277 -6.6931436e-05 -9.0526269e-05 -7.0687567e-05 -3.9580472e-05   0.65835949 -2.0586815e-11 -1.3449425e-11     110.0008     110.0008     110.0008    1331028.9 
Loop time of 20.8314 on 16 procs (16 MPI x 1 OpenMP) for 2934 steps with 12288 atoms

Minimization stats:
  Stopping criterion = force tolerance
  Energy initial, next-to-last, final = 
         -94979.276656     -94979.2766972     -94979.2766972
  Force two-norm initial, final = 0.0869211 9.87628e-11
  Force max component initial, final = 0.00201597 3.22203e-12
  Final line search alpha, max atom move = 1 3.22203e-12
  Iterations, force evaluations = 2934 5868

Pair  time (%) = 19.513 (93.6708)
Neigh time (%) = 0 (0)
Comm  time (%) = 1.05697 (5.07393)
Outpt time (%) = 0.0163029 (0.0782612)
Other time (%) = 0.245186 (1.177)

Nlocal:    768 ave 790 max 746 min
Histogram: 8 0 0 0 0 0 0 0 0 8
Nghost:    862 ave 863 max 861 min
Histogram: 8 0 0 0 0 0 0 0 0 8
Neighs:    0 ave 0 max 0 min
Histogram: 16 0 0 0 0 0 0 0 0 0
FullNghs:  46228.5 ave 47532 max 44925 min
Histogram: 8 0 0 0 0 0 0 0 0 8

Total # of neighbors = 739656
Ave neighs/atom = 60.1934
Neighbor list builds = 0
Dangerous builds = 0

# Obtain new stress tensor

variable tmp equal pxx
variable pxx1 equal ${tmp}
variable pxx1 equal -9.05262689888073e-05
variable tmp equal pyy
variable pyy1 equal ${tmp}
variable pyy1 equal -7.0687566712014e-05
variable tmp equal pzz
variable pzz1 equal ${tmp}
variable pzz1 equal -3.95804722885581e-05
variable tmp equal pxy
variable pxy1 equal ${tmp}
variable pxy1 equal 0.658359492764505
variable tmp equal pxz
variable pxz1 equal ${tmp}
variable pxz1 equal -2.05868148419169e-11
variable tmp equal pyz
variable pyz1 equal ${tmp}
variable pyz1 equal -1.344942515119e-11

# Compute elastic constant from pressure tensor

variable C1neg equal ${d1}
variable C1neg equal -0.000905227957528072
variable C2neg equal ${d2}
variable C2neg equal -0.000706873549851335
variable C3neg equal ${d3}
variable C3neg equal -0.000395743189862496
variable C4neg equal ${d4}
variable C4neg equal 3.3363554913208e-09
variable C5neg equal ${d5}
variable C5neg equal 4.48214387947926e-10
variable C6neg equal ${d6}
variable C6neg equal 6.58359492891717

# Reset box and simulation parameters

clear
  using 1 OpenMP thread(s) per MPI task
box tilt large
read_restart restart.equil
  triclinic box = (-55.0004 -55.0004 -55.0004) to (55.0004 55.0004 55.0004) with tilt (0 0 0)
  2 by 2 by 4 MPI processor grid
  12288 atoms
include potential.mod
# NOTE: This script can be modified for different pair styles
# See in.elastic for more info.

# Choose potential
pair_style     rebo
pair_coeff     * * CH.airebo  C
Reading potential file CH.airebo with DATE: 2011-10-25

#pair_style     lcbop
#pair_coeff     C.lcbop
#pair_style     tersoff
#pair_coeff     BNC.tersoff


# Setup neighbor style
neighbor 1.0 nsq
neigh_modify once no every 1 delay 0 check yes

# Setup minimization style
min_style	     cg
min_modify	     dmax ${dmax} line quadratic
min_modify	     dmax 0.01 line quadratic

# Setup output
thermo		500
thermo_style custom step temp pe press pxx pyy pzz pxy pxz pyz lx ly lz vol
thermo_modify norm no


# Output
dump            1 all xtc 100 traj.xtc
dump            2 all xyz 2000 relaxed.xyz
#dump            4 all atom 10 dump.atom

# Positive deformation

variable delta equal ${up}*${len0}
variable delta equal 1.0e-5*${len0}
variable delta equal 1.0e-5*110.000796794691
variable deltaxy equal ${up}*xy
variable deltaxy equal 1.0e-5*xy
variable deltaxz equal ${up}*xz
variable deltaxz equal 1.0e-5*xz
variable deltayz equal ${up}*yz
variable deltayz equal 1.0e-5*yz
if "${dir} == 1" then    "change_box all x delta 0 ${delta} xy delta ${deltaxy} xz delta ${deltaxz} remap units box"
if "${dir} == 2" then    "change_box all y delta 0 ${delta} yz delta ${deltayz} remap units box"
if "${dir} == 3" then    "change_box all z delta 0 ${delta} remap units box"
if "${dir} == 4" then    "change_box all yz delta ${delta} remap units box"
if "${dir} == 5" then    "change_box all xz delta ${delta} remap units box"
if "${dir} == 6" then    "change_box all xy delta ${delta} remap units box"
change_box all xy delta ${delta} remap units box
change_box all xy delta 0.00110000796794691 remap units box
  triclinic box = (-55.0004 -55.0004 -55.0004) to (55.0004 55.0004 55.0004) with tilt (0.00110001 0 0)

# Relax atoms positions

minimize ${etol} ${ftol} ${maxiter} ${maxeval}
minimize 0 ${ftol} ${maxiter} ${maxeval}
minimize 0 1e-10 ${maxiter} ${maxeval}
minimize 0 1e-10 10000000 ${maxeval}
minimize 0 1e-10 10000000 10000000
Neighbor list info ...
  1 neighbor list requests
  update every 1 steps, delay 0 steps, check yes
  master list distance cutoff = 7
Memory usage per processor = 3.97832 Mbytes
Step Temp PotEng Press Pxx Pyy Pzz Pxy Pxz Pyz Lx Ly Lz Volume 
 5030239            0   -94979.277 -0.0022461626  0.015023843 -0.0049595805 -0.016802751    -2.312043 0.0075519974 0.0090673049     110.0008     110.0008     110.0008    1331028.9 
 5030500            0   -94979.277 7.2822675e-05 -6.1033751e-05 8.8778881e-05 0.0001907229  -0.73011439 4.8243075e-05 2.1016357e-05     110.0008     110.0008     110.0008    1331028.9 
 5031000            0   -94979.277 -8.7838275e-05 -0.00013648515 -6.892489e-05 -5.810479e-05  -0.65929668 1.6491045e-06 -7.61568e-06     110.0008     110.0008     110.0008    1331028.9 
 5031500            0   -94979.277 -7.8792533e-05 -9.4041516e-05 -8.8578914e-05 -5.3757169e-05  -0.65837626 5.371094e-06 1.2331273e-07     110.0008     110.0008     110.0008    1331028.9 
 5032000            0   -94979.277 -6.8129557e-05 -9.19399e-05 -7.1829177e-05 -4.0619594e-05  -0.65835946 1.5609031e-10 -3.5968099e-08     110.0008     110.0008     110.0008    1331028.9 
 5032500            0   -94979.277 -6.7040518e-05 -9.0570753e-05 -7.079472e-05 -3.9756081e-05   -0.6583595 -7.8917977e-10 -1.0537507e-09     110.0008     110.0008     110.0008    1331028.9 
 5033000            0   -94979.277 -6.6939626e-05 -9.0535148e-05 -7.0695993e-05 -3.9587736e-05  -0.65835949 -4.7160655e-11 9.2302827e-11     110.0008     110.0008     110.0008    1331028.9 
 5033173            0   -94979.277 -6.6931376e-05 -9.0526113e-05 -7.0687573e-05 -3.9580444e-05  -0.65835949 1.2140832e-11 -6.4694087e-11     110.0008     110.0008     110.0008    1331028.9 
Loop time of 20.9483 on 16 procs (16 MPI x 1 OpenMP) for 2934 steps with 12288 atoms

Minimization stats:
  Stopping criterion = force tolerance
  Energy initial, next-to-last, final = 
        -94979.2766554     -94979.2766972     -94979.2766972
  Force two-norm initial, final = 0.0875378 9.95898e-11
  Force max component initial, final = 0.00206614 3.13091e-12
  Final line search alpha, max atom move = 1 3.13091e-12
  Iterations, force evaluations = 2934 5868

Pair  time (%) = 19.5238 (93.1998)
Neigh time (%) = 0 (0)
Comm  time (%) = 1.16221 (5.54798)
Outpt time (%) = 0.0162432 (0.0775394)
Other time (%) = 0.246064 (1.17463)

Nlocal:    768 ave 790 max 746 min
Histogram: 8 0 0 0 0 0 0 0 0 8
Nghost:    862 ave 863 max 861 min
Histogram: 8 0 0 0 0 0 0 0 0 8
Neighs:    0 ave 0 max 0 min
Histogram: 16 0 0 0 0 0 0 0 0 0
FullNghs:  46228.5 ave 47532 max 44925 min
Histogram: 8 0 0 0 0 0 0 0 0 8

Total # of neighbors = 739656
Ave neighs/atom = 60.1934
Neighbor list builds = 0
Dangerous builds = 0

# Obtain new stress tensor

variable tmp equal pe
variable e1 equal ${tmp}
variable e1 equal -94979.2766971555
variable tmp equal press
variable p1 equal ${tmp}
variable p1 equal -6.69313764219923e-05
variable tmp equal pxx
variable pxx1 equal ${tmp}
variable pxx1 equal -9.05261125991482e-05
variable tmp equal pyy
variable pyy1 equal ${tmp}
variable pyy1 equal -7.06875731266841e-05
variable tmp equal pzz
variable pzz1 equal ${tmp}
variable pzz1 equal -3.95804435401445e-05
variable tmp equal pxy
variable pxy1 equal ${tmp}
variable pxy1 equal -0.65835949302039
variable tmp equal pxz
variable pxz1 equal ${tmp}
variable pxz1 equal 1.21408324337769e-11
variable tmp equal pyz
variable pyz1 equal ${tmp}
variable pyz1 equal -6.46940870229579e-11

# Compute elastic constant from pressure tensor

variable C1pos equal ${d1}
variable C1pos equal 0.000905226393631481
variable C2pos equal ${d2}
variable C2pos equal 0.000706873613998036
variable C3pos equal ${d3}
variable C3pos equal 0.00039574290237836
variable C4pos equal ${d4}
variable C4pos equal -2.82390887260312e-09
variable C5pos equal ${d5}
variable C5pos equal -7.75490860704864e-10
variable C6pos equal ${d6}
variable C6pos equal 6.58359492893179

# Combine positive and negative

variable C1${dir} equal 0.5*(${C1neg}+${C1pos})
variable C16 equal 0.5*(${C1neg}+${C1pos})
variable C16 equal 0.5*(-0.000905227957528072+${C1pos})
variable C16 equal 0.5*(-0.000905227957528072+0.000905226393631481)
variable C2${dir} equal 0.5*(${C2neg}+${C2pos})
variable C26 equal 0.5*(${C2neg}+${C2pos})
variable C26 equal 0.5*(-0.000706873549851335+${C2pos})
variable C26 equal 0.5*(-0.000706873549851335+0.000706873613998036)
variable C3${dir} equal 0.5*(${C3neg}+${C3pos})
variable C36 equal 0.5*(${C3neg}+${C3pos})
variable C36 equal 0.5*(-0.000395743189862496+${C3pos})
variable C36 equal 0.5*(-0.000395743189862496+0.00039574290237836)
variable C4${dir} equal 0.5*(${C4neg}+${C4pos})
variable C46 equal 0.5*(${C4neg}+${C4pos})
variable C46 equal 0.5*(3.3363554913208e-09+${C4pos})
variable C46 equal 0.5*(3.3363554913208e-09+-2.82390887260312e-09)
variable C5${dir} equal 0.5*(${C5neg}+${C5pos})
variable C56 equal 0.5*(${C5neg}+${C5pos})
variable C56 equal 0.5*(4.48214387947926e-10+${C5pos})
variable C56 equal 0.5*(4.48214387947926e-10+-7.75490860704864e-10)
variable C6${dir} equal 0.5*(${C6neg}+${C6pos})
variable C66 equal 0.5*(${C6neg}+${C6pos})
variable C66 equal 0.5*(6.58359492891717+${C6pos})
variable C66 equal 0.5*(6.58359492891717+6.58359492893179)

# Delete dir to make sure it is not reused

variable dir delete

# Output final values

variable C11all equal ${C11}
variable C11all equal 3.82617018605653
variable C22all equal ${C22}
variable C22all equal 3.8261701704479
variable C33all equal ${C33}
variable C33all equal 3.82617017221093

variable C12all equal 0.5*(${C12}+${C21})
variable C12all equal 0.5*(0.0788006268249846+${C21})
variable C12all equal 0.5*(0.0788006268249846+0.0788006472334403)
variable C13all equal 0.5*(${C13}+${C31})
variable C13all equal 0.5*(0.0788006363416897+${C31})
variable C13all equal 0.5*(0.0788006363416897+0.0788006445829709)
variable C23all equal 0.5*(${C23}+${C32})
variable C23all equal 0.5*(0.0788006279642307+${C32})
variable C23all equal 0.5*(0.0788006279642307+0.0788006341846481)

variable C44all equal ${C44}
variable C44all equal 6.58359492119046
variable C55all equal ${C55}
variable C55all equal 6.58359491746481
variable C66all equal ${C66}
variable C66all equal 6.58359492892448

variable C14all equal 0.5*(${C14}+${C41})
variable C14all equal 0.5*(-1.05647479699549e-09+${C41})
variable C14all equal 0.5*(-1.05647479699549e-09+-1.32017593666244e-08)
variable C15all equal 0.5*(${C15}+${C51})
variable C15all equal 0.5*(-2.59687230974668e-10+${C51})
variable C15all equal 0.5*(-2.59687230974668e-10+-5.3785448759008e-09)
variable C16all equal 0.5*(${C16}+${C61})
variable C16all equal 0.5*(-7.81948295502065e-10+${C61})
variable C16all equal 0.5*(-7.81948295502065e-10+3.0721231629175e-10)

variable C24all equal 0.5*(${C24}+${C42})
variable C24all equal 0.5*(-1.31192834601588e-09+${C42})
variable C24all equal 0.5*(-1.31192834601588e-09+3.3047438015539e-09)
variable C25all equal 0.5*(${C25}+${C52})
variable C25all equal 0.5*(-1.30089510995066e-10+${C52})
variable C25all equal 0.5*(-1.30089510995066e-10+1.13168440739525e-09)
variable C26all equal 0.5*(${C26}+${C62})
variable C26all equal 0.5*(3.20733504859116e-11+${C62})
variable C26all equal 0.5*(3.20733504859116e-11+7.15035917310801e-10)

variable C34all equal 0.5*(${C34}+${C43})
variable C34all equal 0.5*(-9.31378037031822e-10+${C43})
variable C34all equal 0.5*(-9.31378037031822e-10+5.99289311532175e-09)
variable C35all equal 0.5*(${C35}+${C53})
variable C35all equal 0.5*(-1.1193599497826e-10+${C53})
variable C35all equal 0.5*(-1.1193599497826e-10+2.9226680409101e-09)
variable C36all equal 0.5*(${C36}+${C63})
variable C36all equal 0.5*(-1.43742067998821e-10+${C63})
variable C36all equal 0.5*(-1.43742067998821e-10+8.35797110274501e-11)

variable C45all equal 0.5*(${C45}+${C54})
variable C45all equal 0.5*(-1.04131479310485e-10+${C54})
variable C45all equal 0.5*(-1.04131479310485e-10+-2.19296191336415e-10)
variable C46all equal 0.5*(${C46}+${C64})
variable C46all equal 0.5*(2.5622330935884e-10+${C64})
variable C46all equal 0.5*(2.5622330935884e-10+5.12745969992905e-11)
variable C56all equal 0.5*(${C56}+${C65})
variable C56all equal 0.5*(-1.63638236378469e-10+${C65})
variable C56all equal 0.5*(-1.63638236378469e-10+-3.32942764752276e-10)

# Average moduli for cubic crystals

variable C11cubic equal (${C11all}+${C22all}+${C33all})/3.0
variable C11cubic equal (3.82617018605653+${C22all}+${C33all})/3.0
variable C11cubic equal (3.82617018605653+3.8261701704479+${C33all})/3.0
variable C11cubic equal (3.82617018605653+3.8261701704479+3.82617017221093)/3.0
variable C12cubic equal (${C12all}+${C13all}+${C23all})/3.0
variable C12cubic equal (0.0788006370292124+${C13all}+${C23all})/3.0
variable C12cubic equal (0.0788006370292124+0.0788006404623303+${C23all})/3.0
variable C12cubic equal (0.0788006370292124+0.0788006404623303+0.0788006310744394)/3.0
variable C44cubic equal (${C44all}+${C55all}+${C66all})/3.0
variable C44cubic equal (6.58359492119046+${C55all}+${C66all})/3.0
variable C44cubic equal (6.58359492119046+6.58359491746481+${C66all})/3.0
variable C44cubic equal (6.58359492119046+6.58359491746481+6.58359492892448)/3.0

variable bulkmodulus equal (${C11cubic}+2*${C12cubic})/3.0
variable bulkmodulus equal (3.82617017623845+2*${C12cubic})/3.0
variable bulkmodulus equal (3.82617017623845+2*0.0788006361886607)/3.0
variable shearmodulus1 equal ${C44cubic}
variable shearmodulus1 equal 6.58359492252658
variable shearmodulus2 equal (${C11cubic}-${C12cubic})/2.0
variable shearmodulus2 equal (3.82617017623845-${C12cubic})/2.0
variable shearmodulus2 equal (3.82617017623845-0.0788006361886607)/2.0
variable poissonratio equal 1.0/(1.0+${C11cubic}/${C12cubic})
variable poissonratio equal 1.0/(1.0+3.82617017623845/${C12cubic})
variable poissonratio equal 1.0/(1.0+3.82617017623845/0.0788006361886607)

# For Stillinger-Weber silicon, the analytical results
# are known to be (E. R. Cowley, 1988):
#               C11 = 151.4 GPa
#               C12 = 76.4 GPa
#               C44 = 56.4 GPa

print "========================================="
=========================================
print "Components of the Elastic Constant Tensor"
Components of the Elastic Constant Tensor
print "========================================="
=========================================

print "Elastic Constant C11all = ${C11all} ${cunits}"
Elastic Constant C11all = 3.82617018605653 GPa
print "Elastic Constant C22all = ${C22all} ${cunits}"
Elastic Constant C22all = 3.8261701704479 GPa
print "Elastic Constant C33all = ${C33all} ${cunits}"
Elastic Constant C33all = 3.82617017221093 GPa

print "Elastic Constant C12all = ${C12all} ${cunits}"
Elastic Constant C12all = 0.0788006370292124 GPa
print "Elastic Constant C13all = ${C13all} ${cunits}"
Elastic Constant C13all = 0.0788006404623303 GPa
print "Elastic Constant C23all = ${C23all} ${cunits}"
Elastic Constant C23all = 0.0788006310744394 GPa

print "Elastic Constant C44all = ${C44all} ${cunits}"
Elastic Constant C44all = 6.58359492119046 GPa
print "Elastic Constant C55all = ${C55all} ${cunits}"
Elastic Constant C55all = 6.58359491746481 GPa
print "Elastic Constant C66all = ${C66all} ${cunits}"
Elastic Constant C66all = 6.58359492892448 GPa

print "Elastic Constant C14all = ${C14all} ${cunits}"
Elastic Constant C14all = -7.12911708180994e-09 GPa
print "Elastic Constant C15all = ${C15all} ${cunits}"
Elastic Constant C15all = -2.81911605343773e-09 GPa
print "Elastic Constant C16all = ${C16all} ${cunits}"
Elastic Constant C16all = -2.37367989605157e-10 GPa

print "Elastic Constant C24all = ${C24all} ${cunits}"
Elastic Constant C24all = 9.9640772776901e-10 GPa
print "Elastic Constant C25all = ${C25all} ${cunits}"
Elastic Constant C25all = 5.00797448200092e-10 GPa
print "Elastic Constant C26all = ${C26all} ${cunits}"
Elastic Constant C26all = 3.73554633898356e-10 GPa

print "Elastic Constant C34all = ${C34all} ${cunits}"
Elastic Constant C34all = 2.53075753914496e-09 GPa
print "Elastic Constant C35all = ${C35all} ${cunits}"
Elastic Constant C35all = 1.40536602296592e-09 GPa
print "Elastic Constant C36all = ${C36all} ${cunits}"
Elastic Constant C36all = -3.00811784856855e-11 GPa

print "Elastic Constant C45all = ${C45all} ${cunits}"
Elastic Constant C45all = -1.6171383532345e-10 GPa
print "Elastic Constant C46all = ${C46all} ${cunits}"
Elastic Constant C46all = 1.53748953179065e-10 GPa
print "Elastic Constant C56all = ${C56all} ${cunits}"
Elastic Constant C56all = -2.48290500565373e-10 GPa

print "========================================="
=========================================
print "Average properties for a cubic crystal"
Average properties for a cubic crystal
print "========================================="
=========================================

print "Bulk Modulus = ${bulkmodulus} ${cunits}"
Bulk Modulus = 1.32792381620526 GPa
print "Shear Modulus 1 = ${shearmodulus1} ${cunits}"
Shear Modulus 1 = 6.58359492252658 GPa
print "Shear Modulus 2 = ${shearmodulus2} ${cunits}"
Shear Modulus 2 = 1.87368477002489 GPa
print "Poisson Ratio = ${poissonratio}"
Poisson Ratio = 0.020179571109184
print "Deformation size: ${up}"
Deformation size: 1.0e-5

print "Lattice_type	lattice_constant	bulk_modulus	poisson	     c11	     c12         c44	" file elastic_constants.out
Lattice_type	lattice_constant	bulk_modulus	poisson	     c11	     c12         c44	
print "${lattype}    ${latconst}    ${bulkmodulus}     ${poissonratio}     ${C11all}     ${C12all}     ${C44all}" append elastic_constants.out
sc    10.0    1.32792381620526     0.020179571109184     3.82617018605653     0.0788006370292124     6.58359492119046
