12288
Atoms. Timestep: 5032000
1 18.7183 16.5739 44.5878
1 37.3458 9.7318 35.632
1 9.57295 20.6987 49.6548
1 24.6342 8.49823 49.6202
1 22.5141 21.3088 35.1834
1 33.777 5.12243 45.2022
1 46.1469 5.2354 30.296
1 31.2943 17.6929 30.607
1 23.5363 14.8199 42.3281
1 16.0105 20.9292 42.3671
1 17.0916 14.5862 49.5376
1 38.9452 11.7279 30.6538
1 32.6447 11.6076 38.0555
1 40.0016 5.33429 37.7876
1 5.12354 22.8953 52.3136
1 12.7737 16.9333 52.2223
1 11.5616 23.0902 45.0012
1 20.3423 10.952 52.2249
1 27.5108 4.53969 52.3703
1 26.3213 10.5609 44.6387
1 18.021 23.4012 37.7667
1 25.0839 16.7905 37.2828
1 24.1783 23.5063 30.26
1 32.2117 2.69969 50.0347
1 37.8418 2.75166 42.2227
1 30.6954 9.08111 42.6362
1 43.9474 2.76125 34.7739
1 50.2321 2.67406 27.4113
1 43.4248 9.57246 28.0615
1 29.3527 15.1724 35.2
1 35.9519 15.7544 28.1812
1 28.2953 21.7147 28.0336
1 16.3737 17.5446 45.7983
1 20.1845 14.5245 45.8102
1 19.6527 17.7306 42.2243
1 36.4959 8.66185 38.0788
1 39.6408 8.71169 34.3664
1 35.8238 11.7015 34.3746
1 11.8159 19.616 48.3417
1 8.2914 22.925 48.6021
1 8.91647 19.8587 52.2402
1 27.0535 7.56084 48.5461
1 23.164 10.4841 48.3144
1 23.8955 7.7239 52.2351
1 24.9503 20.5503 34.0989
1 21.1627 23.4959 34.0794
1 21.5666 20.1083 37.5339
1 34.6518 6.31414 42.8249
1 31.5228 6.08533 46.5365
1 34.9508 2.72702 46.062
1 46.9835 6.2677 27.8531
1 44.0338 6.45644 31.6961
1 47.0992 2.74267 31.1117
1 32.1516 18.7649 28.1704
1 29.138 18.8534 31.9319
1 32.7715 15.6415 31.8325
1 26.0761 14.2207 41.3565
1 22.0089 16.7884 41.0387
1 22.6003 13.6455 44.6821
1 18.293 19.9013 41.1038
1 14.817 23.261 41.4028
1 15.0118 19.7061 44.6764
1 19.3514 13.5071 48.2623
1 15.5421 16.5149 48.2569
1 16.598 13.9857 52.2202
1 39.7235 12.7091 28.1559
1 36.6307 12.7157 31.8912
1 40.4433 9.71948 31.8866
1 33.4396 12.5938 35.5496
1 30.4106 12.7025 39.3244
1 34.157 9.61622 39.3071
1 40.9759 6.5225 35.4619
1 37.8518 6.48845 39.1753
1 40.8524 2.76317 38.4692
1 2.84599 24.0159 53.6434
1 6.76968 21.0579 53.6137
1 6.07511 24.0327 49.9383
1 10.6892 18.1951 53.6037
1 14.5598 15.3058 53.6014
1 13.2945 17.5956 49.5561
1 9.38728 24.2196 46.3662
1 12.74 20.7544 45.9568
1 12.6506 24.3904 42.7706
1 18.3463 12.3297 53.6018
1 21.9739 9.18132 53.5993
1 20.8893 11.5745 49.5603
1 25.3423 5.7583 53.6112
1 29.0069 2.53054 53.6733
1 28.5683 5.79879 50.2283
1 24.0561 11.5632 45.8969
1 27.4761 8.15283 45.6098
1 27.7839 12.6039 42.938
1 15.8506 24.5235 39.128
1 19.2741 21.1161 38.7824
1 18.9864 24.611 35.4341
1 22.9149 17.9149 38.6384
1 26.3079 14.486 38.3828
1 26.5621 18.7428 35.5569
1 22.1153 24.6909 31.7304
1 25.1806 21.0144 31.1388
1 25.8808 25.4916 28.7871
1 31.1264 1.34717 52.2859
1 33.9505 1.3903 48.3129
1 31.0543 5.03849 49.1762
1 36.6705 1.39445 44.3447
1 39.5799 1.39802 40.5238
1 36.8886 5.27271 41.4951
1 29.5439 7.46236 44.6667
1 33.2152 8.41323 41.6721
1 29.8343 11.8945 41.9838
1 42.6172 1.39803 36.7977
1 45.7653 1.39552 33.1501
1 43.0966 5.32341 34.0619
1 48.9893 1.38477 29.5441
1 52.2925 1.35656 25.9383
1 49.0942 5.03321 26.4527
1 42.6777 8.62561 30.5761
1 45.5989 8.41406 26.7113
1 41.9699 11.6384 26.8645
1 28.3292 13.742 37.4177
1 31.8761 14.503 34.2349
1 28.5416 17.9627 34.55
1 35.1122 14.6986 30.6318
1 38.2591 14.76 26.9455
1 34.4999 17.8194 26.9757
1 27.1334 20.1842 30.1052
1 30.7513 20.8918 27.0058
1 27.7947 24.6426 27.7271
1 19.9034 16.1086 44.0042
1 18.0041 17.6245 44.0011
1 18.2623 16.0158 45.7865
1 37.7587 10.2415 34.3953
1 36.1828 10.2119 36.2485
1 38.0807 8.70378 36.232
1 8.46414 21.2407 50.3187
1 10.3102 19.6726 50.2541
1 10.0184 21.2371 48.4417
1 23.5108 9.05974 50.2404
1 25.351 7.51858 50.3134
1 25.0613 8.94797 48.3564
1 21.3643 21.8045 35.8074
1 23.2308 20.2697 35.7893
1 22.9437 21.8644 33.9711
1 33.4065 4.54147 46.4171
1 34.868 4.58991 44.5088
1 33.0248 6.16099 44.6318
1 45.6608 4.66483 31.4756
1 47.179 4.60753 29.5884
1 45.5246 6.37889 29.7851
1 30.9044 17.1806 31.85
1 32.4552 17.201 29.9978
1 30.5346 18.6889 29.9758
1 22.3126 15.2303 42.8708
1 24.3255 13.8805 43.0067
1 23.9573 15.347 41.101
1 14.885 21.455 43.0119
1 16.6509 19.7997 42.8871
1 16.5194 21.5484 41.2205
1 15.9929 15.1494 50.1946
1 17.8945 13.653 50.1965
1 17.4411 15.0054 48.2512
1 38.5527 11.2392 31.9045
1 40.0823 11.2123 30.0209
1 38.1879 12.7261 30.0319
1 32.263 11.1225 39.3153
1 33.824 11.1454 37.4544
1 31.8335 12.5275 37.3756
1 39.4822 4.71062 38.9235
1 41.0277 4.71871 37.0646
1 39.4213 6.51849 37.3247
1 6.23156 22.3443 51.6489
1 4.42332 23.9648 51.7471
1 4.81184 22.5218 53.6266
1 13.8308 16.3269 51.5376
1 11.9134 17.8012 51.5452
1 12.6334 16.759 53.602
1 12.6582 22.5391 44.3285
1 11.0264 24.3088 44.5735
1 11.0226 22.4537 46.1249
1 21.3682 10.2961 51.5451
1 19.519 11.8431 51.5404
1 20.1907 10.7885 53.6018
1 28.745 4.10752 51.8853
1 26.7679 5.52496 51.7128
1 27.129 4.11163 53.6397
1 27.2926 9.87909 43.8996
1 25.7993 11.8019 44.2149
1 25.8629 9.93536 45.8388
1 19.1235 22.8553 37.101
1 17.4259 24.5726 37.287
1 17.5265 22.788 38.9226
1 25.9921 16.0298 36.5336
1 24.5904 18.0495 36.877
1 24.6821 16.2556 38.5413
1 25.0073 22.7414 29.4277
1 23.8104 24.8399 29.9856
1 23.724 22.8982 31.4685
1 32.6773 3.3435 48.8746
1 31.1723 3.25617 50.785
1 32.5959 1.38387 50.3249
1 38.4034 3.41988 41.1373
1 36.9023 3.40174 43.0211
1 38.1077 1.39657 42.4209
1 31.3078 9.92039 41.6811
1 29.3394 9.18553 42.9611
1 31.4371 8.05623 43.2952
1 44.5625 3.42279 33.7101
1 43.0025 3.43066 35.554
1 44.1789 1.39717 34.9654
1 50.7565 3.25162 26.254
1 49.2272 3.32402 28.1401
1 50.6144 1.3703 27.732
1 43.7972 10.0419 26.7984
1 42.3252 10.1329 28.7219
1 44.1497 8.53123 28.6502
1 29.9501 15.9767 34.21
1 28.0027 15.2686 35.5562
1 30.1423 14.2224 35.9071
1 36.3835 16.2948 26.9654
1 34.7886 16.2391 28.789
1 36.6907 14.7361 28.7928
1 28.9881 22.558 27.1436
1 26.9515 21.8971 28.3807
1 28.9891 20.63 28.6455
1 15.2229 18.0471 46.4193
1 17.097 16.5043 46.3911
1 16.8388 18.1114 44.6068
1 19.0039 14.9982 46.3964
1 20.9326 13.5154 46.428
1 20.642 15.0881 44.6149
1 18.4815 18.2099 42.8235
1 20.3685 16.6841 42.8169
1 20.1263 18.3157 41.0446
1 36.0468 8.10256 39.2816
1 37.6427 8.16306 37.4464
1 35.7608 9.69006 37.478
1 39.2135 8.1857 35.5905
1 40.7603 8.17599 33.7166
1 38.9082 9.74267 33.7691
1 35.4149 11.1951 35.6145
1 36.9956 11.2323 33.7682
1 35.0474 12.6707 33.7299
1 12.9394 19.0875 47.6927
1 11.1331 20.7014 47.7837
1 11.4168 19.1271 49.5909
1 9.3935 22.3793 47.9321
1 7.73523 24.1253 48.152
1 7.78592 22.3309 49.7649
1 9.99694 19.2819 51.561
1 8.09573 20.7878 51.5914
1 8.73196 19.6229 53.6071
1 28.3583 7.18182 48.2058
1 26.2363 8.42014 47.7598
1 26.559 7.0537 49.7844
1 24.3188 9.95725 47.7118
1 22.4211 11.4925 47.6838
1 22.7666 10.0408 49.5807
1 24.9412 7.07039 51.5825
1 23.1712 8.69861 51.5506
1 23.6737 7.48815 53.5965
1 26.2933 20.3615 33.7685
1 24.0916 21.3598 33.3355
1 24.4765 19.9002 35.2714
1 22.2598 22.9465 33.4067
1 20.5409 24.6431 33.5754
1 20.7046 22.9132 35.2665
1 22.7374 19.6305 36.9329
1 20.8958 21.2073 36.9833
1 21.0811 19.5024 38.6981
1 35.1209 6.91987 41.6522
1 33.4692 6.75317 43.4369
1 35.325 5.20372 43.3418
1 31.7964 6.54592 45.2203
1 30.4303 6.52003 47.2913
1 32.346 5.08882 47.145
1 35.4261 3.37817 44.925
1 34.0117 3.36129 46.8746
1 35.2826 1.39326 46.3068
1 47.3681 6.74776 26.5987
1 45.926 6.87492 28.5415
1 47.6321 5.14729 28.3818
1 44.46 6.97729 30.4707
1 42.9618 7.04537 32.3782
1 44.6316 5.29165 32.1872
1 47.6874 3.37674 30.0144
1 46.1279 3.40672 31.867
1 47.3713 1.39215 31.3464
1 32.6151 19.3432 26.9829
1 30.9658 19.2249 28.7557
1 32.884 17.7395 28.7796
1 29.355 19.1717 30.5769
1 28.2604 19.569 32.752
1 29.8268 17.7598 32.5292
1 33.1951 16.1837 30.6136
1 31.6039 16.119 32.4381
1 33.5152 14.6315 32.4536
1 27.4386 14.1074 41.0584
1 25.1661 14.9091 40.5303
1 25.6195 13.5939 42.5508
1 23.1836 16.3128 40.4443
1 21.2932 17.8322 40.4408
1 21.5603 16.2292 42.2406
1 23.8334 13.2431 44.1528
1 21.8497 14.6501 44.057
1 22.1267 13.0544 45.8586
1 19.4438 19.4009 40.484
1 17.6466 21.0247 40.5777
1 17.801 19.2979 42.2663
1 15.9152 22.7115 40.7329
1 14.2589 24.4625 40.9558
1 14.2912 22.6271 42.5335
1 16.157 19.1986 44.05
1 14.3712 20.8354 44.1563
1 14.5288 19.1209 45.8521
1 20.5037 12.9958 47.6527
1 18.585 14.4904 47.6295
1 18.9942 13.086 49.5453
1 16.6782 15.9952 47.6244
1 14.7929 17.5235 47.6433
1 15.1894 16.0861 49.5401
1 17.6391 13.3554 51.5365
1 15.741 14.8473 51.5352
1 16.4654 13.831 53.6014
1 40.1225 13.2094 26.9127
1 38.5859 13.2242 28.787
1 40.467 11.6934 28.7654
1 37.0338 13.2205 30.65
1 35.459 13.1863 32.4951
1 37.3976 11.7315 32.524
1 40.832 10.2024 30.6327
1 39.3098 10.2394 32.5242
1 41.1743 8.6861 32.4817
1 33.8564 13.1137 34.3172
1 32.2279 13.0075 36.1179
1 34.2309 11.6474 36.211
1 30.6207 12.9585 37.9517
1 29.475 13.3953 40.1038
1 31.1558 11.6756 39.9749
1 34.5892 10.1583 38.0886
1 32.9843 10.0822 39.9177
1 34.8824 8.57637 39.9013
1 41.4362 7.08191 34.266
1 39.8891 7.09047 36.1377
1 41.5516 5.33681 35.9273
1 38.3232 7.07133 37.9948
1 36.7365 7.01891 39.8352
1 38.4479 5.31452 39.644
1 41.4543 3.43282 37.4048
1 39.921 3.42962 39.2656
1 41.0835 1.39836 38.6499
1 1.66242 24.5651 54.2813
1 3.74283 23.1488 54.3027
1 3.27988 24.4807 52.387
1 5.72482 21.6955 54.301
1 7.70123 20.2691 54.3008
1 7.00232 21.3514 52.2648
1 4.96219 24.567 50.601
1 6.67782 22.8725 50.4307
1 6.64402 24.6774 48.8328
1 9.67115 18.853 54.3011
1 11.6277 17.4306 54.3014
1 10.8453 18.393 52.228
1 13.5661 15.9915 54.3018
1 15.4833 14.5304 54.3022
1 14.6929 15.4666 52.22
1 12.1916 18.1472 50.2188
1 14.0897 16.6443 50.201
1 13.6631 18.0474 48.2845
1 8.30971 24.7834 47.0582
1 9.92464 23.0033 46.7973
1 9.95619 24.8793 45.271
1 11.6212 21.2867 46.6097
1 13.3927 19.6375 46.4884
1 13.2486 21.3643 44.8045
1 11.5834 24.9638 43.4697
1 13.1942 23.1777 43.205
1 13.1918 25.0366 41.6542
1 17.3767 13.0439 54.3027
1 19.2391 11.524 54.3031
1 18.4845 12.4846 52.2221
1 21.0511 9.94992 54.3031
1 22.7812 8.29201 54.3023
1 22.1514 9.36834 52.2272
1 19.7879 12.1461 50.2048
1 21.6629 10.6168 50.2184
1 21.2635 12.0058 48.2852
1 24.4309 6.5539 54.3023
1 26.1279 4.82933 54.3019
1 25.6269 6.07141 52.2807
1 27.9493 3.19429 54.3064
1 29.7648 1.50336 54.296
1 29.4518 3.05992 52.4661
1 27.2687 6.1151 50.5598
1 29.3117 4.7933 50.8248
1 29.0965 6.43314 49.1525
1 22.8634 12.0303 46.4697
1 24.7435 10.4856 46.4837
1 24.5608 12.2051 44.7547
1 26.527 8.8028 46.4212
1 29.1894 7.17678 47.0492
1 27.503 8.513 44.231
1 26.4185 12.6498 43.2651
1 28.4298 10.2683 43.1334
1 28.2891 13.6462 42.1038
1 14.7822 25.0972 39.8246
1 16.4266 23.3362 39.5907
1 16.3553 25.1453 37.9813
1 18.145 21.6377 39.4232
1 19.9292 20.0013 39.317
1 19.76 21.7218 37.6185
1 17.9126 25.1814 36.1255
1 19.5995 23.4557 35.9304
1 19.4607 25.2088 34.2614
1 21.7598 18.4122 39.2549
1 23.5928 16.8301 39.2086
1 23.4088 18.5269 37.4784
1 25.3917 15.1928 39.1695
1 28.1738 13.9234 39.8496
1 26.2394 14.695 36.9753
1 25.2181 18.8734 35.9211
1 27.0956 16.362 35.6906
1 27.1226 19.7962 34.7767
1 21.0195 25.2423 32.4049
1 22.6989 23.5102 32.2022
1 22.6511 25.3401 30.6118
1 24.3316 21.7245 31.9951
1 26.9967 20.1934 32.5415
1 25.1417 21.3586 29.7557
1 24.54 25.7181 29.1578
1 26.128 23.0506 28.5895
1 26.6946 26.5871 28.357
1 30.5518 0.702863 53.4154
1 31.9953 0.698208 51.3943
1 30.6232 2.58681 51.8804
1 33.3792 0.699824 49.3883
1 34.7056 0.697402 47.3682
1 33.6035 2.7171 48.0486
1 30.5504 4.40755 50.3093
1 32.0856 4.52176 48.4148
1 30.3285 6.05327 48.622
1 36.0525 0.697223 45.3785
1 37.4568 0.69727 43.4323
1 36.3731 2.73965 44.1261
1 38.9047 0.697543 41.519
1 40.3878 0.697813 39.6316
1 39.3359 2.75952 40.3381
1 36.3981 4.64717 42.6422
1 37.9391 4.68814 40.7828
1 36.2632 6.42465 41.0101
1 28.7275 7.49927 45.8355
1 30.9217 7.33403 44.4235
1 28.7627 8.08804 43.6558
1 32.7191 7.7573 42.8117
1 34.414 7.9855 41.0832
1 32.5109 9.48028 41.0943
1 28.7366 11.5439 42.8306
1 30.771 11.1532 41.2474
1 29.5443 13.21 41.5169
1 41.9041 0.698025 37.7684
1 43.452 0.698232 35.9279
1 42.3902 2.76366 36.615
1 45.0287 0.698449 34.1081
1 46.6308 0.698638 32.3054
1 45.5197 2.75512 32.942
1 42.5755 4.71471 35.2061
1 44.1224 4.69806 33.3451
1 42.515 6.50262 33.5868
1 48.2528 0.698643 30.5133
1 49.8882 0.697872 28.7208
1 48.6733 2.71818 29.2709
1 51.5474 0.695063 26.9275
1 48.6676 4.51898 27.6787
1 42.2805 8.1335 31.8234
1 43.7698 8.05639 29.9091
1 41.9483 9.6613 29.9833
1 45.2284 7.94681 27.9754
1 41.5866 11.1565 28.1198
1 27.5985 13.929 38.6298
1 29.6925 13.618 37.1172
1 27.4796 14.2305 36.3798
1 31.4197 13.915 35.4221
1 33.0839 14.0828 33.6672
1 31.1452 15.5277 33.6223
1 27.4357 17.6302 35.3847
1 29.4365 17.2136 33.7829
1 28.3373 19.3135 34.1524
1 34.6959 14.1722 31.8597
1 36.278 14.2183 30.025
1 34.364 15.7052 30.0106
1 37.8432 14.239 28.1748
1 34.0546 17.2625 28.1794
1 26.4166 20.3268 31.3313
1 28.4823 19.9642 29.7978
1 26.3383 20.8431 29.1185
1 30.2371 20.2481 28.1373
1 26.587 24.3093 28.4116
1 -18.7172 -16.5739 44.5878
1 -18.717 16.5741 -44.588
1 -18.717 16.5741 44.588
1 -16.5736 -44.5877 -18.7173
1 -16.5736 -44.5877 18.7173
1 -16.5733 44.5881 -18.7179
1 -16.5733 44.5881 18.7179
1 -44.5877 -18.7178 -16.5741
1 -44.5877 -18.7178 16.5741
1 -44.587 18.7175 -16.5738
1 -44.587 18.7175 16.5738
1 44.5881 -18.7175 -16.5738
1 44.5881 -18.7175 16.5738
1 44.5888 18.7178 -16.5741
1 44.5888 18.7178 16.5741
1 16.5744 -44.5881 -18.7179
1 16.5744 -44.5881 18.7179
1 16.5747 44.5877 -18.7173
1 16.5747 44.5877 18.7173
1 18.7181 -16.5741 -44.588
1 18.7181 -16.5741 44.588
1 18.7183 16.5739 -44.5878
1 -18.7172 -16.5739 -44.5878
1 -37.3447 -9.7318 35.632
1 -37.344 9.73133 -35.6315
1 -37.344 9.73133 35.6315
1 -9.731 -35.6314 -37.3445
1 -9.731 -35.6314 37.3445
1 -9.73103 35.632 -37.3452
1 -9.73103 35.632 37.3453
1 -35.6316 -37.345 -9.73163
1 -35.6316 -37.345 9.73163
1 -35.6308 37.3448 -9.7315
1 -35.6308 37.3448 9.7315
1 35.6319 -37.3448 -9.7315
1 35.6319 -37.3448 9.7315
1 35.6327 37.345 -9.73163
1 35.6327 37.345 9.73163
1 9.73213 -35.632 -37.3452
1 9.73213 -35.632 37.3453
1 9.7321 35.6314 -37.3445
1 9.7321 35.6314 37.3445
1 37.3451 -9.73133 -35.6315
1 37.3451 -9.73133 35.6315
1 37.3458 9.7318 -35.632
1 -37.3447 -9.7318 -35.632
1 -9.57185 -20.6987 49.6548
1 -9.57157 20.6988 -49.6549
1 -9.57157 20.6988 49.6549
1 -20.6986 -49.6548 -9.57209
1 -20.6986 -49.6548 9.57209
1 -20.6979 49.655 -9.57243
1 -20.6979 49.655 9.57243
1 -49.6547 -9.57244 -20.699
1 -49.6547 -9.57244 20.699
1 -49.654 9.57208 -20.6986
1 -49.654 9.57208 20.6986
1 49.6551 -9.57208 -20.6986
1 49.6551 -9.57208 20.6986
1 49.6558 9.57244 -20.699
1 49.6558 9.57244 20.699
1 20.699 -49.655 -9.57243
1 20.699 -49.655 9.57243
1 20.6997 49.6548 -9.57209
1 20.6997 49.6548 9.57209
1 9.57267 -20.6988 -49.6549
1 9.57267 -20.6988 49.6549
1 9.57295 20.6987 -49.6548
1 -9.57185 -20.6987 -49.6548
1 -24.6331 -8.49823 49.6202
1 -24.6328 8.49822 -49.6201
1 -24.6328 8.49822 49.6201
1 -8.49798 -49.62 -24.6333
1 -8.49798 -49.62 24.6333
1 -8.49737 49.6203 -24.6337
1 -8.49737 49.6203 24.6337
1 -49.6199 -24.6335 -8.49824
1 -49.6199 -24.6335 8.49824
1 -49.6193 24.6335 -8.49821
1 -49.6193 24.6335 8.49821
1 49.6204 -24.6335 -8.49821
1 49.6204 -24.6335 8.49821
1 49.621 24.6335 -8.49824
1 49.621 24.6335 8.49824
1 8.49847 -49.6203 -24.6337
1 8.49847 -49.6203 24.6337
1 8.49908 49.62 -24.6333
1 8.49908 49.62 24.6333
1 24.6339 -8.49822 -49.6201
1 24.6339 -8.49822 49.6201
1 24.6342 8.49823 -49.6202
1 -24.6331 -8.49823 -49.6202
1 -22.513 -21.3088 35.1834
1 -22.5129 21.3092 -35.1838
1 -22.5129 21.3092 35.1838
1 -21.3085 -35.1833 -22.5132
1 -21.3085 -35.1833 22.5132
1 -21.3084 35.1838 -22.5138
1 -21.3084 35.1838 22.5138
1 -35.1834 -22.5136 -21.3092
1 -35.1834 -22.5136 21.3092
1 -35.1826 22.5133 -21.3088
1 -35.1826 22.5133 21.3088
1 35.1837 -22.5133 -21.3088
1 35.1837 -22.5133 21.3088
1 35.1845 22.5136 -21.3092
1 35.1845 22.5136 21.3092
1 21.3095 -35.1838 -22.5138
1 21.3095 -35.1838 22.5138
1 21.3096 35.1833 -22.5132
1 21.3096 35.1833 22.5132
1 22.514 -21.3092 -35.1838
1 22.514 -21.3092 35.1838
1 22.5141 21.3088 -35.1834
1 -22.513 -21.3088 -35.1834
1 -33.7759 -5.12243 45.2022
1 -33.7755 5.12221 -45.2019
1 -33.7755 5.12221 45.2019
1 -5.12194 -45.2018 -33.776
1 -5.12194 -45.2018 33.776
1 -5.1216 45.2023 -33.7765
1 -5.1216 45.2023 33.7765
1 -45.2018 -33.7762 -5.12234
1 -45.2018 -33.7762 5.12234
1 -45.2011 33.7762 -5.1223
1 -45.2011 33.7762 5.1223
1 45.2022 -33.7762 -5.1223
1 45.2022 -33.7762 5.1223
1 45.2029 33.7762 -5.12234
1 45.2029 33.7762 5.12234
1 5.1227 -45.2023 -33.7765
1 5.1227 -45.2023 33.7765
1 5.12304 45.2018 -33.776
1 5.12304 45.2018 33.776
1 33.7766 -5.12221 -45.2019
1 33.7766 -5.12221 45.2019
1 33.777 5.12243 -45.2022
1 -33.7759 -5.12243 -45.2022
1 -46.1458 -5.2354 30.296
1 -46.1451 5.23498 -30.2955
1 -46.1451 5.23498 30.2955
1 -5.23476 -30.2956 -46.1458
1 -5.23476 -30.2956 46.1458
1 -5.23452 30.2959 -46.1461
1 -5.23452 30.2959 46.1461
1 -30.2956 -46.146 -5.23518
1 -30.2956 -46.146 5.23518
1 -30.2948 46.146 -5.2352
1 -30.2948 46.146 5.2352
1 30.2959 -46.146 -5.2352
1 30.2959 -46.146 5.2352
1 30.2967 46.146 -5.23518
1 30.2967 46.146 5.23518
1 5.23562 -30.2959 -46.1461
1 5.23562 -30.2959 46.1461
1 5.23586 30.2956 -46.1458
1 5.23586 30.2956 46.1458
1 46.1462 -5.23498 -30.2955
1 46.1462 -5.23498 30.2955
1 46.1469 5.2354 -30.296
1 -46.1458 -5.2354 -30.296
1 -31.2932 -17.6929 30.607
1 -31.2926 17.6928 -30.6068
1 -31.2926 17.6928 30.6068
1 -17.6922 -30.6065 -31.293
1 -17.6922 -30.6065 31.293
1 -17.6924 30.6073 -31.2939
1 -17.6924 30.6073 31.2939
1 -30.6067 -31.2935 -17.6929
1 -30.6067 -31.2935 17.6929
1 -30.606 31.2934 -17.6928
1 -30.606 31.2934 17.6928
1 30.6071 -31.2934 -17.6928
1 30.6071 -31.2934 17.6928
1 30.6078 31.2935 -17.6929
1 30.6078 31.2935 17.6929
1 17.6935 -30.6073 -31.2939
1 17.6935 -30.6073 31.2939
1 17.6933 30.6065 -31.293
1 17.6933 30.6065 31.293
1 31.2937 -17.6928 -30.6068
1 31.2937 -17.6928 30.6068
1 31.2943 17.6929 -30.607
1 -31.2932 -17.6929 -30.607
1 -23.5352 -14.8199 42.3281
1 -23.5349 14.82 -42.3281
1 -23.5349 14.82 42.3281
1 -14.8195 -42.3278 -23.5353
1 -14.8195 -42.3278 23.5353
1 -14.8193 42.3284 -23.5359
1 -14.8193 42.3284 23.5359
1 -42.3279 -23.5357 -14.8201
1 -42.3279 -23.5357 14.8201
1 -42.3271 23.5355 -14.8198
1 -42.3271 23.5355 14.8198
1 42.3282 -23.5355 -14.8198
1 42.3282 -23.5355 14.8198
1 42.329 23.5357 -14.8201
1 42.329 23.5357 14.8201
1 14.8204 -42.3284 -23.5359
1 14.8204 -42.3284 23.5359
1 14.8206 42.3278 -23.5353
1 14.8206 42.3278 23.5353
1 23.536 -14.82 -42.3281
1 23.536 -14.82 42.3281
1 23.5363 14.8199 -42.3281
1 -23.5352 -14.8199 -42.3281
1 -16.0094 -20.9292 42.3671
1 -16.0094 20.9297 -42.3676
1 -16.0094 20.9297 42.3676
1 -20.9291 -42.3672 -16.0097
1 -20.9291 -42.3672 16.0097
1 -20.9287 42.3675 -16.0102
1 -20.9287 42.3675 16.0102
1 -42.3672 -16.0102 -20.9297
1 -42.3672 -16.0102 20.9297
1 -42.3664 16.0097 -20.9292
1 -42.3664 16.0097 20.9292
1 42.3675 -16.0097 -20.9292
1 42.3675 -16.0097 20.9292
1 42.3683 16.0102 -20.9297
1 42.3683 16.0102 20.9297
1 20.9298 -42.3675 -16.0102
1 20.9298 -42.3675 16.0102
1 20.9302 42.3672 -16.0097
1 20.9302 42.3672 16.0097
1 16.0105 -20.9297 -42.3676
1 16.0105 -20.9297 42.3676
1 16.0105 20.9292 -42.3671
1 -16.0094 -20.9292 -42.3671
1 -17.0905 -14.5862 49.5376
1 -17.0902 14.5861 -49.5376
1 -17.0902 14.5861 49.5376
1 -14.5859 -49.5375 -17.0907
1 -14.5859 -49.5375 17.0907
1 -14.5853 49.5377 -17.0911
1 -14.5853 49.5377 17.0911
1 -49.5374 -17.0909 -14.5862
1 -49.5374 -17.0909 14.5862
1 -49.5367 17.0908 -14.5861
1 -49.5367 17.0908 14.5861
1 49.5378 -17.0908 -14.5861
1 49.5378 -17.0908 14.5861
1 49.5385 17.0909 -14.5862
1 49.5385 17.0909 14.5862
1 14.5864 -49.5377 -17.0911
1 14.5864 -49.5377 17.0911
1 14.587 49.5375 -17.0907
1 14.587 49.5375 17.0907
1 17.0913 -14.5861 -49.5376
1 17.0913 -14.5861 49.5376
1 17.0916 14.5862 -49.5376
1 -17.0905 -14.5862 -49.5376
1 -38.9441 -11.7279 30.6538
1 -38.9432 11.7273 -30.6532
1 -38.9432 11.7273 30.6532
1 -11.727 -30.6532 -38.9438
1 -11.727 -30.6532 38.9438
1 -11.7271 30.6539 -38.9445
1 -11.7271 30.6539 38.9445
1 -30.6533 -38.9442 -11.7276
1 -30.6533 -38.9442 11.7276
1 -30.6526 38.9441 -11.7276
1 -30.6526 38.9441 11.7276
1 30.6537 -38.9441 -11.7276
1 30.6537 -38.9441 11.7276
1 30.6544 38.9442 -11.7276
1 30.6544 38.9442 11.7276
1 11.7282 -30.6539 -38.9445
1 11.7282 -30.6539 38.9445
1 11.7281 30.6532 -38.9438
1 11.7281 30.6532 38.9438
1 38.9443 -11.7273 -30.6532
1 38.9443 -11.7273 30.6532
1 38.9452 11.7279 -30.6538
1 -38.9441 -11.7279 -30.6538
1 -32.6436 -11.6076 38.0555
1 -32.643 11.6073 -38.0552
1 -32.643 11.6073 38.0552
1 -11.6068 -38.055 -32.6434
1 -11.6068 -38.055 32.6434
1 -11.6069 38.0557 -32.6442
1 -11.6069 38.0557 32.6442
1 -38.0552 -32.6439 -11.6075
1 -38.0552 -32.6439 11.6075
1 -38.0544 32.6437 -11.6073
1 -38.0544 32.6437 11.6073
1 38.0555 -32.6437 -11.6073
1 38.0555 -32.6437 11.6073
1 38.0563 32.6439 -11.6075
1 38.0563 32.6439 11.6075
1 11.608 -38.0557 -32.6442
1 11.608 -38.0557 32.6442
1 11.6079 38.055 -32.6434
1 11.6079 38.055 32.6434
1 32.6441 -11.6073 -38.0552
1 32.6441 -11.6073 38.0552
1 32.6447 11.6076 -38.0555
1 -32.6436 -11.6076 -38.0555
1 -40.0005 -5.33429 37.7876
1 -40 5.33399 -37.7872
1 -40 5.33399 37.7872
1 -5.33372 -37.7872 -40.0006
1 -5.33372 -37.7872 40.0006
1 -5.33346 37.7876 -40.001
1 -5.33346 37.7876 40.001
1 -37.7872 -40.0008 -5.33416
1 -37.7872 -40.0008 5.33416
1 -37.7865 40.0008 -5.33412
1 -37.7865 40.0008 5.33412
1 37.7876 -40.0008 -5.33412
1 37.7876 -40.0008 5.33412
1 37.7883 40.0008 -5.33416
1 37.7883 40.0008 5.33416
1 5.33456 -37.7876 -40.001
1 5.33456 -37.7876 40.001
1 5.33482 37.7872 -40.0006
1 5.33482 37.7872 40.0006
1 40.0011 -5.33399 -37.7872
1 40.0011 -5.33399 37.7872
1 40.0016 5.33429 -37.7876
1 -40.0005 -5.33429 -37.7876
1 -5.12244 -22.8953 52.3136
1 -5.12206 22.8953 -52.3137
1 -5.12206 22.8953 52.3137
1 -22.8951 -52.3136 -5.12273
1 -22.8951 -52.3136 5.12273
1 -22.8943 52.3136 -5.12288
1 -22.8943 52.3136 5.12288
1 -52.3133 -5.12293 -22.8954
1 -52.3133 -5.12293 22.8954
1 -52.3128 5.12267 -22.8951
1 -52.3128 5.12267 22.8951
1 52.3139 -5.12267 -22.8951
1 52.3139 -5.12267 22.8951
1 52.3144 5.12293 -22.8954
1 52.3144 5.12293 22.8954
1 22.8954 -52.3136 -5.12288
1 22.8954 -52.3136 5.12288
1 22.8962 52.3136 -5.12273
1 22.8962 52.3136 5.12273
1 5.12316 -22.8953 -52.3137
1 5.12316 -22.8953 52.3137
1 5.12354 22.8953 -52.3136
1 -5.12244 -22.8953 -52.3136
1 -12.7726 -16.9333 52.2223
1 -12.7722 16.9332 -52.2223
1 -12.7722 16.9332 52.2223
1 -16.9331 -52.2222 -12.7729
1 -16.9331 -52.2222 12.7729
1 -16.9323 52.2223 -12.7731
1 -16.9323 52.2223 12.7731
1 -52.222 -12.773 -16.9333
1 -52.222 -12.773 16.9333
1 -52.2214 12.7729 -16.9332
1 -52.2214 12.7729 16.9332
1 52.2225 -12.7729 -16.9332
1 52.2225 -12.7729 16.9332
1 52.2231 12.773 -16.9333
1 52.2231 12.773 16.9333
1 16.9334 -52.2223 -12.7731
1 16.9334 -52.2223 12.7731
1 16.9342 52.2222 -12.7729
1 16.9342 52.2222 12.7729
1 12.7733 -16.9332 -52.2223
1 12.7733 -16.9332 52.2223
1 12.7737 16.9333 -52.2223
1 -12.7726 -16.9333 -52.2223
1 -11.5605 -23.0902 45.0012
1 -11.5605 23.0906 -45.0016
1 -11.5605 23.0906 45.0016
1 -23.0901 -45.0013 -11.5609
1 -23.0901 -45.0013 11.5609
1 -23.0896 45.0015 -11.5613
1 -23.0896 45.0015 11.5613
1 -45.0013 -11.5614 -23.0907
1 -45.0013 -11.5614 23.0907
1 -45.0004 11.5608 -23.0901
1 -45.0004 11.5608 23.0901
1 45.0015 -11.5608 -23.0901
1 45.0015 -11.5608 23.0901
1 45.0024 11.5614 -23.0907
1 45.0024 11.5614 23.0907
1 23.0907 -45.0015 -11.5613
1 23.0907 -45.0015 11.5613
1 23.0912 45.0013 -11.5609
1 23.0912 45.0013 11.5609
1 11.5616 -23.0906 -45.0016
1 11.5616 -23.0906 45.0016
1 11.5616 23.0902 -45.0012
1 -11.5605 -23.0902 -45.0012
1 -20.3412 -10.952 52.2249
1 -20.3409 10.952 -52.2249
1 -20.3409 10.952 52.2249
1 -10.9519 -52.2249 -20.3415
1 -10.9519 -52.2249 20.3415
1 -10.951 52.225 -20.3417
1 -10.951 52.225 20.3417
1 -52.2247 -20.3416 -10.952
1 -52.2247 -20.3416 10.952
1 -52.2241 20.3416 -10.952
1 -52.2241 20.3416 10.952
1 52.2252 -20.3416 -10.952
1 52.2252 -20.3416 10.952
1 52.2258 20.3416 -10.952
1 52.2258 20.3416 10.952
1 10.9521 -52.225 -20.3417
1 10.9521 -52.225 20.3417
1 10.953 52.2249 -20.3415
1 10.953 52.2249 20.3415
1 20.342 -10.952 -52.2249
1 20.342 -10.952 52.2249
1 20.3423 10.952 -52.2249
1 -20.3412 -10.952 -52.2249
1 -27.5097 -4.53969 52.3703
1 -27.5096 4.53977 -52.3703
1 -27.5096 4.53977 52.3703
1 -4.53958 -52.3702 -27.5101
1 -4.53958 -52.3702 27.5101
1 -4.53878 52.3704 -27.5103
1 -4.53878 52.3704 27.5103
1 -52.3701 -27.5102 -4.53972
1 -52.3701 -27.5102 4.53972
1 -52.3694 27.5102 -4.53974
1 -52.3694 27.5102 4.53974
1 52.3705 -27.5102 -4.53974
1 52.3705 -27.5102 4.53974
1 52.3712 27.5102 -4.53972
1 52.3712 27.5102 4.53972
1 4.53988 -52.3704 -27.5103
1 4.53988 -52.3704 27.5103
1 4.54068 52.3702 -27.5101
1 4.54068 52.3702 27.5101
1 27.5107 -4.53977 -52.3703
1 27.5107 -4.53977 52.3703
1 27.5108 4.53969 -52.3703
1 -27.5097 -4.53969 -52.3703
1 -26.3202 -10.5609 44.6387
1 -26.3198 10.5608 -44.6386
1 -26.3198 10.5608 44.6386
1 -10.5604 -44.6384 -26.3202
1 -10.5604 -44.6384 26.3202
1 -10.5601 44.6389 -26.3209
1 -10.5601 44.6389 26.3209
1 -44.6384 -26.3206 -10.5609
1 -44.6384 -26.3206 10.5609
1 -44.6377 26.3205 -10.5607
1 -44.6377 26.3205 10.5607
1 44.6388 -26.3205 -10.5607
1 44.6388 -26.3205 10.5607
1 44.6395 26.3206 -10.5609
1 44.6395 26.3206 10.5609
1 10.5612 -44.6389 -26.3209
1 10.5612 -44.6389 26.3209
1 10.5615 44.6384 -26.3202
1 10.5615 44.6384 26.3202
1 26.3209 -10.5608 -44.6386
1 26.3209 -10.5608 44.6386
1 26.3213 10.5609 -44.6387
1 -26.3202 -10.5609 -44.6387
1 -18.0199 -23.4012 37.7667
1 -18.02 23.4018 -37.7673
1 -18.02 23.4018 37.7673
1 -23.4011 -37.7669 -18.0203
1 -23.4011 -37.7669 18.0203
1 -23.4008 37.7672 -18.0207
1 -23.4008 37.7672 18.0207
1 -37.7669 -18.0207 -23.4017
1 -37.7669 -18.0207 23.4017
1 -37.766 18.0203 -23.4013
1 -37.766 18.0203 23.4013
1 37.7671 -18.0203 -23.4013
1 37.7671 -18.0203 23.4013
1 37.768 18.0207 -23.4017
1 37.768 18.0207 23.4017
1 23.4019 -37.7672 -18.0207
1 23.4019 -37.7672 18.0207
1 23.4022 37.7669 -18.0203
1 23.4022 37.7669 18.0203
1 18.0211 -23.4018 -37.7673
1 18.0211 -23.4018 37.7673
1 18.021 23.4012 -37.7667
1 -18.0199 -23.4012 -37.7667
1 -25.0828 -16.7905 37.2828
1 -25.0824 16.7906 -37.2829
1 -25.0824 16.7906 37.2829
1 -16.7899 -37.2825 -25.0827
1 -16.7899 -37.2825 25.0827
1 -16.79 37.2832 -25.0835
1 -16.79 37.2832 25.0835
1 -37.2827 -25.0833 -16.7907
1 -37.2827 -25.0833 16.7907
1 -37.2818 25.083 -16.7903
1 -37.2818 25.083 16.7903
1 37.2829 -25.083 -16.7903
1 37.2829 -25.083 16.7903
1 37.2838 25.0833 -16.7907
1 37.2838 25.0833 16.7907
1 16.7911 -37.2832 -25.0835
1 16.7911 -37.2832 25.0835
1 16.791 37.2825 -25.0827
1 16.791 37.2825 25.0827
1 25.0835 -16.7906 -37.2829
1 25.0835 -16.7906 37.2829
1 25.0839 16.7905 -37.2828
1 -25.0828 -16.7905 -37.2828
1 -24.1772 -23.5063 30.26
1 -24.177 23.5067 -30.2604
1 -24.177 23.5067 30.2604
1 -23.5061 -30.26 -24.1774
1 -23.5061 -30.26 24.1774
1 -23.5059 30.2604 -24.1779
1 -23.5059 30.2604 24.1779
1 -30.26 -24.1777 -23.5066
1 -30.26 -24.1777 23.5066
1 -30.2593 24.1776 -23.5065
1 -30.2593 24.1776 23.5065
1 30.2604 -24.1776 -23.5065
1 30.2604 -24.1776 23.5065
1 30.2611 24.1777 -23.5066
1 30.2611 24.1777 23.5066
1 23.507 -30.2604 -24.1779
1 23.507 -30.2604 24.1779
1 23.5072 30.26 -24.1774
1 23.5072 30.26 24.1774
1 24.1781 -23.5067 -30.2604
1 24.1781 -23.5067 30.2604
1 24.1783 23.5063 -30.26
1 -24.1772 -23.5063 -30.26
1 -32.2106 -2.69969 50.0347
1 -32.2105 2.69971 -50.0346
1 -32.2105 2.69971 50.0346
1 -2.6995 -50.0345 -32.211
1 -2.6995 -50.0345 32.211
1 -2.69879 50.0348 -32.2112
1 -2.69879 50.0348 32.2112
1 -50.0345 -32.2111 -2.6997
1 -50.0345 -32.2111 2.6997
1 -50.0338 32.2111 -2.69969
1 -50.0338 32.2111 2.69969
1 50.0349 -32.2111 -2.69969
1 50.0349 -32.2111 2.69969
1 50.0356 32.2111 -2.6997
1 50.0356 32.2111 2.6997
1 2.69989 -50.0348 -32.2112
1 2.69989 -50.0348 32.2112
1 2.7006 50.0345 -32.211
1 2.7006 50.0345 32.211
1 32.2116 -2.69971 -50.0346
1 32.2116 -2.69971 50.0346
1 32.2117 2.69969 -50.0347
1 -32.2106 -2.69969 -50.0347
1 -37.8407 -2.75166 42.2227
1 -37.8404 2.7515 -42.2225
1 -37.8404 2.7515 42.2225
1 -2.75123 -42.2225 -37.8409
1 -2.75123 -42.2225 37.8409
1 -2.75083 42.2228 -37.8412
1 -2.75083 42.2228 37.8412
1 -42.2224 -37.8411 -2.75158
1 -42.2224 -37.8411 2.75158
1 -42.2217 37.8411 -2.75157
1 -42.2217 37.8411 2.75157
1 42.2228 -37.8411 -2.75157
1 42.2228 -37.8411 2.75157
1 42.2235 37.8411 -2.75158
1 42.2235 37.8411 2.75158
1 2.75193 -42.2227 -37.8412
1 2.75193 -42.2227 37.8412
1 2.75233 42.2225 -37.8409
1 2.75233 42.2225 37.8409
1 37.8415 -2.7515 -42.2225
1 37.8415 -2.7515 42.2225
1 37.8418 2.75166 -42.2227
1 -37.8407 -2.75166 -42.2227
1 -30.6943 -9.08111 42.6362
1 -30.6938 9.08082 -42.6359
1 -30.6938 9.08082 42.6359
1 -9.08048 -42.6357 -30.6943
1 -9.08048 -42.6357 30.6943
1 -9.08035 42.6363 -30.695
1 -9.08035 42.6363 30.695
1 -42.6359 -30.6947 -9.08104
1 -42.6359 -30.6947 9.08104
1 -42.6351 30.6946 -9.08089
1 -42.6351 30.6946 9.08089
1 42.6362 -30.6946 -9.08089
1 42.6362 -30.6946 9.08089
1 42.637 30.6947 -9.08104
1 42.637 30.6947 9.08104
1 9.08145 -42.6363 -30.695
1 9.08145 -42.6363 30.695
1 9.08158 42.6357 -30.6943
1 9.08158 42.6357 30.6943
1 30.6949 -9.08082 -42.6359
1 30.6949 -9.08082 42.6359
1 30.6954 9.08111 -42.6362
1 -30.6943 -9.08111 -42.6362
1 -43.9463 -2.76125 34.7739
1 -43.946 2.76103 -34.7737
1 -43.946 2.76103 34.7737
1 -2.76076 -34.7737 -43.9466
1 -2.76076 -34.7737 43.9466
1 -2.76042 34.7739 -43.9468
1 -2.76042 34.7739 43.9468
1 -34.7736 -43.9467 -2.76114
1 -34.7736 -43.9467 2.76114
1 -34.7729 43.9467 -2.76114
1 -34.7729 43.9467 2.76114
1 34.774 -43.9467 -2.76114
1 34.774 -43.9467 2.76114
1 34.7747 43.9467 -2.76114
1 34.7747 43.9467 2.76114
1 2.76152 -34.7739 -43.9468
1 2.76152 -34.7739 43.9468
1 2.76186 34.7737 -43.9466
1 2.76186 34.7737 43.9466
1 43.9471 -2.76103 -34.7737
1 43.9471 -2.76103 34.7737
1 43.9474 2.76125 -34.7739
1 -43.9463 -2.76125 -34.7739
1 -50.231 -2.67406 27.4113
1 -50.2306 2.67378 -27.411
1 -50.2306 2.67378 27.411
1 -2.67355 -27.4111 -50.2313
1 -2.67355 -27.4111 50.2313
1 -2.6732 27.4112 -50.2314
1 -2.6732 27.4112 50.2314
1 -27.4111 -50.2314 -2.67391
1 -27.4111 -50.2314 2.67391
1 -27.4102 50.2313 -2.67394
1 -27.4102 50.2313 2.67394
1 27.4113 -50.2313 -2.67394