12288
Atoms. Timestep: 5036000
1 17.1114 18.6104 44.908
1 36.4018 10.1235 37.9457
1 8.73786 24.1735 49.8046
1 21.1283 9.34449 49.758
1 22.7585 23.277 36.3438
1 30.9168 5.25568 46.402
1 45.6492 5.31556 33.8794
1 31.7428 18.7996 32.5605
1 21.4782 15.9656 42.6668
1 15.5765 23.6106 42.9363
1 14.8691 16.7094 49.6566
1 38.9382 12.3335 33.4821
1 31.3418 11.9558 39.4321
1 38.3554 5.41724 40.2231
1 4.69619 27.046 52.4048
1 11.0347 19.7689 52.3103
1 11.3386 26.3538 45.3624
1 17.2425 12.4059 52.3038
1 23.3839 4.95359 52.4048
1 23.5883 11.4431 45.1998
1 18.4299 25.9579 38.7102
1 24.0427 18.13 38.204
1 26.1454 26.2127 32.8319
1 28.0466 2.66891 50.4432
1 35.3398 2.76831 44.1066
1 28.6523 9.59871 43.7303
1 42.6275 2.77272 37.7989
1 50.0689 2.67895 31.6468
1 43.4883 9.84137 31.3894
1 28.8472 15.9475 36.4263
1 36.6079 16.6833 30.8055
1 30.3337 24.0188 30.9319
1 14.9873 19.9784 46.0905
1 18.0048 16.1945 46.0162
1 18.448 19.7304 42.7081
1 35.0624 8.94563 40.1039
1 38.8067 9.03217 37.0327
1 35.2398 12.2802 36.5875
1 10.7988 22.7588 48.5416
1 7.89273 26.6128 48.7768
1 7.83987 23.3779 52.3295
1 23.4225 8.14172 48.7457
1 20.0308 11.5776 48.4625
1 20.2526 8.63735 52.3199
1 24.8951 21.8698 35.1354
1 22.0829 25.8483 35.4672
1 21.2557 22.0634 38.4226
1 32.3199 6.5122 44.332
1 28.4525 6.26383 47.2312
1 31.7324 2.74694 47.3145
1 46.8552 6.33751 31.5996
1 43.4071 6.59898 34.9725
1 46.3715 2.75738 34.7611
1 33.1637 20.1119 30.5439
1 29.1864 19.7197 33.318
1 32.8593 16.5372 33.814
1 23.7812 14.7548 41.671
1 20.5902 18.3868 41.5592
1 20.191 14.8785 44.9011
1 17.7065 22.2476 41.7441
1 14.8701 26.1466 42.0305
1 14.1814 22.4512 45.0762
1 16.8804 15.2479 48.3979
1 13.8177 18.9875 48.4324
1 14.1821 16.1246 52.3043
1 40.0756 13.2899 31.124
1 36.5413 13.4308 34.4014
1 40.0766 10.1305 34.8001
1 32.6933 13.1611 37.3003
1 28.7547 12.7775 40.0856
1 32.5634 9.91099 40.8902
1 39.7819 6.66794 38.1712
1 36.0868 6.63528 41.2944
1 38.9531 2.77429 40.9145
1 2.65733 28.5088 53.7292
1 5.94979 24.9242 53.6904
1 5.82558 28.023 50.0493
1 9.21722 21.3755 53.6815
1 12.4299 17.7912 53.6801
1 11.7843 20.4257 49.6972
1 9.24285 27.7459 46.602
1 12.0641 23.8288 46.2854
1 12.7432 27.5208 43.2403
1 15.5424 14.1226 53.6792
1 18.5371 10.3524 53.6795
1 17.9535 12.9894 49.6602
1 21.479 6.52339 53.6881
1 24.5418 2.73491 53.7312
1 24.563 5.9631 50.0838
1 21.2122 12.57 46.1276
1 24.7418 9.29119 46.565
1 24.9062 12.5733 43.0138
1 16.2729 27.3115 39.9
1 19.1398 23.4317 39.6236
1 19.8347 27.1291 36.5672
1 21.9413 19.516 39.3728
1 25.053 15.8144 39.4349
1 25.2675 19.1359 35.9843
1 23.637 27.1909 33.4948
1 26.9413 23.6636 33.8911
1 27.9189 27.9639 31.0596
1 26.5773 1.34515 52.4632
1 30.1873 1.38753 49.2046
1 27.0495 5.00022 49.2974
1 33.7419 1.39646 45.9361
1 37.3073 1.39856 42.6931
1 34.6686 5.37337 43.3513
1 27.2868 8.39152 45.8499
1 31.2092 8.71808 43.0302
1 27.4288 11.6325 42.2639
1 40.9359 1.39905 39.5288
1 44.6701 1.39846 36.4889
1 42.0243 5.40829 37.0755
1 48.4891 1.39086 33.5343
1 52.3059 1.35137 30.4954
1 49.0637 5.01559 30.4788
1 42.3816 8.91708 33.7722
1 45.6829 8.51095 30.2666
1 42.2966 11.9898 30.0302
1 27.5097 14.7736 38.5957
1 31.466 15.2119 35.8425
1 27.6564 17.9748 35.0242
1 35.3661 15.5957 33.0436
1 38.8955 15.4547 29.77
1 35.4743 18.9128 29.5086
1 28.8998 22.6514 33.0144
1 32.2941 22.6048 29.5347
1 29.8846 26.9077 30.1465
1 18.1866 17.9325 44.3266
1 16.7021 19.8411 44.3837
1 16.4821 18.0761 46.0373
1 37.0578 10.7009 36.8538
1 35.1648 10.6262 38.3599
1 36.9513 9.0098 38.589
1 7.72033 24.8823 50.4482
1 9.23876 23.0061 50.3837
1 9.32671 24.6727 48.6395
1 20.0727 10.0442 50.3476
1 21.6839 8.24422 50.4179
1 21.6878 9.8176 48.5667
1 21.6748 23.9478 36.9353
1 23.0398 21.9665 36.7606
1 23.5603 23.9161 35.3737
1 30.2089 4.61686 47.4226
1 32.092 4.68525 45.9072
1 30.4 6.40685 45.8022
1 44.9546 4.72427 34.9373
1 46.7562 4.65988 33.3306
1 45.1649 6.50187 33.317
1 31.0062 18.0802 33.5071
1 32.9903 18.3081 32.1595
1 31.2537 20.0068 32.0388
1 20.3616 16.6101 43.2044
1 21.9672 14.7999 43.2654
1 22.1251 16.5182 41.558
1 14.5123 24.2904 43.5386
1 15.9364 22.3431 43.4035
1 16.2887 24.1954 41.8823
1 13.8876 17.4587 50.3072
1 15.4317 15.6051 50.3
1 15.3444 17.1146 48.4066
1 38.3311 11.808 34.6269
1 40.1029 11.7383 32.9864
1 38.357 13.4174 32.813
1 30.6715 11.3663 40.507
1 32.6318 11.5375 39.0974
1 30.7186 12.9556 38.6813
1 37.6218 4.7694 41.2197
1 39.4525 4.77501 39.6453
1 37.9418 6.66232 39.7411
1 5.69483 26.3229 51.7476
1 4.18271 28.2115 51.8385
1 4.31796 26.7161 53.7059
1 11.97 18.9885 51.6313
1 10.3899 20.8089 51.6409
1 10.8338 19.5917 53.6805
1 12.3912 25.6663 44.7492
1 10.9865 27.6297 44.9147
1 10.6424 25.7806 46.4309
1 18.142 11.5811 51.6272
1 16.6222 13.4539 51.6224
1 17.0533 12.2495 53.679
1 24.4955 4.30764 51.8625
1 22.8151 6.04418 51.7407
1 22.9867 4.62194 53.7028
1 24.827 10.9393 44.7951
1 23.0294 12.5389 44.5358
1 22.9364 10.8799 46.3002
1 19.5101 25.2942 38.1137
1 18.0441 27.2118 38.2275
1 17.7179 25.3779 39.7688
1 25.1337 17.4434 37.6652
1 23.6366 19.3674 37.682
1 23.4121 17.5971 39.3298
1 27.4249 25.6869 32.6216
1 25.7373 27.4487 32.2404
1 25.2844 25.4104 33.6636
1 28.7729 3.32287 49.4468
1 26.8701 3.22581 50.9422
1 28.3867 1.3723 50.8262
1 36.1129 3.44635 43.1629
1 34.3003 3.43528 44.7567
1 35.5198 1.39782 44.3081
1 29.3283 10.1906 42.6606
1 27.3677 10.0285 44.0713
1 29.2541 8.56409 44.4502
1 43.4387 3.44756 36.886
1 41.5857 3.45331 38.43
1 42.7888 1.39899 37.9925
1 50.7291 3.23143 30.5484
1 48.9724 3.34351 32.2089
1 50.3986 1.37652 32.0339
1 43.9897 10.2509 30.1506
1 42.3755 10.4922 31.9327
1 44.0725 8.75541 32.0514
1 29.5547 16.6049 35.411
1 27.551 16.3417 36.7686
1 29.4652 14.9417 37.1733
1 37.1824 17.1787 29.6323
1 35.4264 17.2597 31.2806
1 37.188 15.5936 31.4664
1 30.9834 24.6595 29.8299
1 29.3868 24.6639 31.7385
1 30.5868 22.6481 31.2762
1 13.9321 20.6682 46.6944
1 15.4247 18.7672 46.6354
1 15.6348 20.5227 44.9763
1 16.9378 16.8805 46.6029
1 18.4821 15.0171 46.6033
1 18.6226 16.7221 44.8775
1 17.3759 20.408 43.2958
1 18.8425 18.4909 43.224
1 19.1321 20.3076 41.6312
1 34.3849 8.34694 41.1705
1 36.2786 8.41671 39.6622
1 34.4968 10.0363 39.4373
1 38.1446 8.45197 38.1197
1 39.9786 8.44785 36.5405
1 38.2657 10.1587 36.403
1 34.5769 11.6885 37.6666
1 36.4837 11.7867 36.1838
1 34.6454 13.3364 35.8897
1 11.8364 22.0605 47.9179
1 10.3638 23.976 48.0124
1 10.2499 22.2905 49.7385
1 8.92617 25.9155 48.1444
1 7.51924 27.8743 48.3103
1 7.26356 26.0855 49.9076
1 8.8071 22.6286 51.6578
1 7.23594 24.4612 51.6893
1 7.58605 23.1492 53.6839
1 24.652 7.63028 48.3254
1 22.8587 9.23255 48.0781
1 22.8073 7.60989 49.8825
1 21.1416 10.9289 47.9162
1 19.5011 12.7061 47.8272
1 19.5186 11.1472 49.6908
1 21.2104 7.85211 51.6741
1 19.6632 9.70725 51.6416
1 20.0054 8.4393 53.6818
1 25.8773 21.0445 34.545
1 24.7121 23.2657 34.8526
1 24.0718 21.2467 36.1332
1 23.2355 25.2278 34.9482
1 21.6817 27.0975 34.9622
1 21.3322 25.2306 36.4842
1 22.3065 21.3697 37.809
1 20.9329 23.3482 37.9698
1 20.543 21.4747 39.4817
1 33.0123 7.13037 43.2872
1 31.0929 7.02639 44.7589
1 32.8046 5.32701 44.8915
1 29.148 6.88767 46.1928
1 27.1827 6.71719 47.5941
1 28.9974 5.14798 47.8703
1 32.4808 3.41635 46.3445
1 30.6431 3.38314 47.9137
1 31.9676 1.39379 47.5711
1 47.376 6.76834 30.3778
1 45.7505 6.99657 32.1489
1 47.3949 5.20173 32.213
1 44.0455 7.14551 33.8557
1 42.2778 7.23031 35.5047
1 43.8498 5.37758 35.4916
1 47.1547 3.40468 33.8028
1 45.3009 3.43404 35.351
1 46.5742 1.39657 35.0093
1 33.8139 20.6986 29.4486
1 32.0009 20.7015 31.0645
1 33.6746 18.9391 31.1163
1 30.0441 20.5504 32.5325
1 27.8691 20.0428 33.7008
1 29.702 18.4861 33.8257
1 33.5469 17.1857 32.7859
1 31.5692 16.9613 34.1448
1 33.4455 15.4613 34.4927
1 24.9805 14.196 41.2242
1 23.2586 15.8877 41.0413
1 23.1356 14.2066 42.7815
1 21.6772 17.7174 40.9942
1 20.2018 19.6283 41.0434
1 19.9275 17.8209 42.6534
1 21.3254 14.2508 44.3793
1 19.7181 16.0594 44.3175
1 19.5737 14.3504 46.0397
1 18.7737 21.5698 41.1456
1 17.3555 23.519 41.28
1 17.004 21.6646 42.8068
1 15.9356 25.4688 41.427
1 14.5066 27.4153 41.5709
1 14.1587 25.5642 43.085
1 15.245 21.7691 44.4766
1 13.8085 23.7112 44.6
1 13.5138 21.8954 46.1726
1 17.9194 14.538 47.7907
1 16.374 16.4003 47.7891
1 16.4091 14.8481 49.6517
1 14.848 18.2775 47.8111
1 13.3344 20.1634 47.8531
1 13.3269 18.5679 49.6715
1 15.0894 15.3144 51.6226
1 13.5383 17.1588 51.6256
1 14.0007 15.9693 53.6797
1 40.6001 13.7254 29.9038
1 38.9353 13.9128 31.6408
1 40.6636 12.2117 31.7962
1 37.1672 13.9834 33.2807
1 35.3036 13.934 34.8115
1 37.125 12.3535 35.0781
1 40.6767 10.6446 33.646
1 38.8997 10.7112 35.2852
1 40.6209 9.00484 35.4298
1 33.3692 13.7782 36.2446
1 31.3941 13.561 37.6186
1 33.3034 12.1355 38.0276
1 29.419 13.3541 39.0003
1 27.4739 13.2106 40.4348
1 29.3796 11.7809 40.8382
1 33.2358 10.5035 39.8176
1 31.2864 10.3526 41.2458
1 33.1465 8.84648 41.5826
1 40.4697 7.26937 37.1129
1 38.6359 7.2748 38.6933
1 40.1907 5.41974 38.6502
1 36.7819 7.25257 40.2503
1 34.9079 7.20465 41.7828
1 36.5165 5.40221 41.7923
1 39.7488 3.45459 39.9923
1 37.9265 3.45237 41.5721
1 39.1105 1.39892 41.0976
1 1.57514 29.2057 54.3639
1 3.38869 27.5126 54.3849
1 3.13291 28.8917 52.4693
1 5.04712 25.735 54.3813
1 6.69786 23.9692 54.3805
1 6.25368 25.1974 52.355
1 4.78715 28.7118 50.683
1 6.24233 26.7899 50.5507
1 6.48199 28.5666 48.9422
1 8.34338 22.2075 54.3805
1 9.97468 20.4369 54.3807
1 9.43871 21.5734 52.3168
1 11.5856 18.6501 54.3809
1 13.1718 16.8426 54.3809
1 12.6179 17.9547 52.3065
1 10.7827 21.1516 50.3449
1 12.3361 19.3058 50.3214
1 12.3 20.8667 48.4757
1 8.20106 28.4377 47.228
1 9.59876 26.4729 47.0531
1 9.93745 28.3187 45.5324
1 11.014 24.5182 46.8999
1 12.4597 22.5837 46.781
1 12.7495 24.3952 45.206
1 11.6862 28.2058 43.8498
1 13.0988 26.247 43.6918
1 13.4424 28.0954 42.1741
1 14.7291 15.0104 54.3808
1 16.2542 13.1508 54.3806
1 15.7235 14.275 52.3032
1 17.7468 11.2635 54.3803
1 19.2131 9.35236 54.3799
1 18.7465 10.5225 52.3081
1 16.9694 13.7451 50.3006
1 18.51 11.8862 50.3136
1 18.436 13.3962 48.4124
1 20.6673 7.42642 54.3797
1 22.1323 5.49871 54.3801
1 21.7879 6.77161 52.347
1 23.6334 3.58051 54.3829
1 25.1233 1.5964 54.3708
1 25.0379 3.18973 52.504
1 23.3679 6.51574 50.5464
1 25.1222 4.8693 50.7472
1 25.2264 6.55484 49.0064
1 20.0779 13.1968 46.6512
1 21.7473 11.4465 46.767
1 21.8424 13.1099 45.0022
1 23.5007 9.78949 46.9686
1 25.3257 8.22774 47.2574
1 25.4152 9.88213 45.4934
1 23.6814 13.0974 43.4336
1 25.4939 11.5162 43.7121
1 25.5625 13.1317 41.9155
1 15.2012 27.985 40.4985
1 16.6469 26.0498 40.3705
1 16.9612 27.8748 38.8194
1 18.0717 24.1056 40.2277
1 19.4809 22.1564 40.0857
1 19.862 24.0207 38.5737
1 18.7295 27.7731 37.1423
1 20.231 25.8808 37.0617
1 20.5308 27.7058 35.4929
1 20.8847 20.2068 39.9665
1 22.3299 18.2752 39.8915
1 22.6132 20.0884 38.2877
1 23.8947 16.4247 39.9204
1 25.6232 14.7337 40.1089
1 25.6808 16.3307 38.3031
1 24.2927 19.9206 36.582
1 25.7527 17.9485 36.528
1 25.9453 19.6786 34.9324
1 22.4109 27.7312 33.9347
1 24.0377 25.945 34.0309
1 24.4239 27.9108 32.5496
1 25.6277 24.0882 34.1363
1 27.0848 21.2335 33.8023
1 27.8573 24.668 33.5022
1 26.5645 28.2662 31.3957
1 28.4132 25.6911 31.6002
1 28.85 28.9559 30.613
1 25.8672 0.70969 53.5262
1 27.5851 0.693491 51.7481
1 26.1813 2.59572 51.9827
1 29.3739 0.697498 50.1051
1 31.1465 0.698375 48.46
1 29.9061 2.72049 48.8969
1 26.3554 4.37013 50.3322
1 28.2917 4.51022 48.8924
1 26.4894 6.09285 48.6333
1 32.9113 0.698463 46.8135
1 34.6792 0.698353 45.174
1 33.5394 2.76071 45.713
1 36.4563 0.698194 43.5475
1 38.2479 0.698033 41.9392
1 37.142 2.77244 42.5044
1 33.949 4.72806 44.3598
1 35.7896 4.75449 42.794
1 34.2141 6.58629 42.8268
1 26.5991 7.7792 46.9001
1 28.5682 7.95594 45.5045
1 26.6889 9.43288 45.1367
1 30.5273 8.11528 44.0907
1 32.467 8.24596 42.6464
1 30.6129 9.76165 42.3181
1 26.7608 11.0558 43.346
1 28.7121 11.2017 41.92
1 26.8168 12.6519 41.5324
1 40.0599 0.697925 40.3559
1 41.8987 0.697946 38.8046
1 40.78 2.77439 39.3444
1 43.7679 0.698146 37.2892
1 45.6661 0.698485 35.807
1 44.4945 2.76814 36.2756
1 41.2868 4.77161 38.0762
1 43.1242 4.7569 36.5111
1 41.6064 6.64938 36.5846
1 47.5861 0.69879 34.3457
1 49.5158 0.698586 32.8827
1 48.2389 2.73263 33.2291
1 51.4461 0.696184 31.3914
1 48.4989 4.54169 31.6635
1 41.7727 8.3965 34.9185
1 43.5123 8.28525 33.2427
1 41.8218 10.0279 33.1299
1 45.1795 8.0988 31.5031
1 41.7874 11.5717 31.2631
1 26.8601 14.2281 39.7033
1 28.7919 14.3465 38.2438
1 26.8965 15.7952 37.8712
1 30.7755 14.5668 36.8722
1 32.767 14.8181 35.5307
1 30.87 16.2529 35.127
1 26.9486 17.3811 36.0662
1 28.9733 17.6665 34.7171
1 27.1229 19.0908 34.4431
1 34.7129 15.0019 34.1261
1 36.5833 15.0641 32.6092
1 34.7871 16.6848 32.3814
1 38.3493 14.9936 30.9707
1 34.8646 18.3742 30.6454
1 27.6205 22.4416 33.6077
1 29.8279 21.9221 32.2636
1 29.0446 24.0527 32.9705
1 31.628 21.9809 30.6109
1 28.6356 26.7479 30.8277
1 -17.1103 -18.6104 44.908
1 -17.1101 18.6105 -44.9081
1 -17.1101 18.6105 44.9081
1 -18.6104 -44.9081 -17.1109
1 -18.6104 -44.9081 17.1109
1 -18.6093 44.9079 -17.1107
1 -18.6093 44.9079 17.1107
1 -44.9075 -17.1106 -18.6102
1 -44.9075 -17.1106 18.6102
1 -44.9074 17.111 -18.6106
1 -44.9074 17.111 18.6106
1 44.9085 -17.111 -18.6106
1 44.9085 -17.111 18.6106
1 44.9086 17.1106 -18.6102
1 44.9086 17.1106 18.6102
1 18.6104 -44.9079 -17.1107
1 18.6104 -44.9079 17.1107
1 18.6115 44.9081 -17.1109
1 18.6115 44.9081 17.1109
1 17.1112 -18.6105 -44.9081
1 17.1112 -18.6105 44.9081
1 17.1114 18.6104 -44.908
1 -17.1103 -18.6104 -44.908
1 -36.4007 -10.1235 37.9457
1 -36.4008 10.1239 -37.946
1 -36.4008 10.1239 37.946
1 -10.1236 -37.946 -36.4014
1 -10.1236 -37.946 36.4014
1 -10.1227 37.9458 -36.4011
1 -10.1227 37.9458 36.4011
1 -37.9458 -36.4014 -10.1238
1 -37.9458 -36.4014 10.1238
1 -37.9448 36.4012 -10.1236
1 -37.9448 36.4012 10.1236
1 37.9459 -36.4012 -10.1236
1 37.9459 -36.4012 10.1236
1 37.9469 36.4014 -10.1238
1 37.9469 36.4014 10.1238
1 10.1238 -37.9458 -36.4011
1 10.1238 -37.9458 36.4011
1 10.1247 37.946 -36.4014
1 10.1247 37.946 36.4014
1 36.4019 -10.1239 -37.946
1 36.4019 -10.1239 37.946
1 36.4018 10.1235 -37.9457
1 -36.4007 -10.1235 -37.9457
1 -8.73676 -24.1735 49.8046
1 -8.73633 24.1735 -49.8046
1 -8.73633 24.1735 49.8046
1 -24.1735 -49.8047 -8.73712
1 -24.1735 -49.8047 8.73712
1 -24.1724 49.8045 -8.73707
1 -24.1724 49.8045 8.73707
1 -49.804 -8.73689 -24.1733
1 -49.804 -8.73689 24.1733
1 -49.8041 8.73731 -24.1737
1 -49.8041 8.73731 24.1737
1 49.8052 -8.73731 -24.1737
1 49.8052 -8.73731 24.1737
1 49.8051 8.73689 -24.1733
1 49.8051 8.73689 24.1733
1 24.1735 -49.8045 -8.73707
1 24.1735 -49.8045 8.73707
1 24.1746 49.8047 -8.73712
1 24.1746 49.8047 8.73712
1 8.73743 -24.1735 -49.8046
1 8.73743 -24.1735 49.8046
1 8.73786 24.1735 -49.8046
1 -8.73676 -24.1735 -49.8046
1 -21.1272 -9.34449 49.758
1 -21.1271 9.34461 -49.7581
1 -21.1271 9.34461 49.7581
1 -9.34464 -49.7582 -21.1279
1 -9.34464 -49.7582 21.1279
1 -9.34336 49.7578 -21.1276
1 -9.34336 49.7578 21.1276
1 -49.7576 -21.1276 -9.34442
1 -49.7576 -21.1276 9.34442
1 -49.7573 21.1278 -9.34467
1 -49.7573 21.1278 9.34467
1 49.7584 -21.1278 -9.34467
1 49.7584 -21.1278 9.34467
1 49.7587 21.1276 -9.34442
1 49.7587 21.1276 9.34442
1 9.34446 -49.7578 -21.1276
1 9.34446 -49.7578 21.1276
1 9.34574 49.7582 -21.1279
1 9.34574 49.7582 21.1279
1 21.1282 -9.34461 -49.7581
1 21.1282 -9.34461 49.7581
1 21.1283 9.34449 -49.758
1 -21.1272 -9.34449 -49.758
1 -22.7574 -23.277 36.3438
1 -22.7571 23.2771 -36.3439
1 -22.7571 23.2771 36.3439
1 -23.277 -36.344 -22.758
1 -23.277 -36.344 22.758
1 -23.276 36.3437 -22.7576
1 -23.276 36.3437 22.7576
1 -36.3434 -22.7576 -23.2769
1 -36.3434 -22.7576 23.2769
1 -36.3432 22.7579 -23.2772
1 -36.3432 22.7579 23.2772
1 36.3443 -22.7579 -23.2772
1 36.3443 -22.7579 23.2772
1 36.3445 22.7576 -23.2769
1 36.3445 22.7576 23.2769
1 23.2771 -36.3437 -22.7576
1 23.2771 -36.3437 22.7576
1 23.2781 36.344 -22.758
1 23.2781 36.344 22.758
1 22.7582 -23.2771 -36.3439
1 22.7582 -23.2771 36.3439
1 22.7585 23.277 -36.3438
1 -22.7574 -23.277 -36.3438
1 -30.9157 -5.25568 46.402
1 -30.9157 5.25586 -46.4021
1 -30.9157 5.25586 46.4021
1 -5.25578 -46.4022 -30.9164
1 -5.25578 -46.4022 30.9164
1 -5.25466 46.4019 -30.9161
1 -5.25466 46.4019 30.9161
1 -46.4018 -30.9163 -5.25577
1 -46.4018 -30.9163 5.25577
1 -46.4012 30.9163 -5.25577
1 -46.4012 30.9163 5.25577
1 46.4023 -30.9163 -5.25577
1 46.4023 -30.9163 5.25577
1 46.4029 30.9163 -5.25577
1 46.4029 30.9163 5.25577
1 5.25576 -46.4019 -30.9161
1 5.25576 -46.4019 30.9161
1 5.25688 46.4022 -30.9164
1 5.25688 46.4022 30.9164
1 30.9168 -5.25586 -46.4021
1 30.9168 -5.25586 46.4021
1 30.9168 5.25568 -46.402
1 -30.9157 -5.25568 -46.402
1 -45.6481 -5.31556 33.8794
1 -45.6484 5.316 -33.8797
1 -45.6484 5.316 33.8797
1 -5.31559 -33.8796 -45.6489
1 -5.31559 -33.8796 45.6489
1 -5.31487 33.8795 -45.6487
1 -5.31487 33.8795 45.6487
1 -33.8795 -45.6488 -5.31583
1 -33.8795 -45.6488 5.31583
1 -33.8785 45.6487 -5.31574
1 -33.8785 45.6487 5.31574
1 33.8796 -45.6487 -5.31574
1 33.8796 -45.6487 5.31574
1 33.8806 45.6488 -5.31583
1 33.8806 45.6488 5.31583
1 5.31597 -33.8795 -45.6487
1 5.31597 -33.8795 45.6487
1 5.3167 33.8796 -45.6489
1 5.3167 33.8796 45.6489
1 45.6495 -5.316 -33.8797
1 45.6495 -5.316 33.8797
1 45.6492 5.31556 -33.8794
1 -45.6481 -5.31556 -33.8794
1 -31.7417 -18.7996 32.5605
1 -31.7418 18.8002 -32.561
1 -31.7418 18.8002 32.561
1 -18.7997 -32.5608 -31.7424
1 -18.7997 -32.5608 31.7424
1 -18.7989 32.5607 -31.7422
1 -18.7989 32.5607 31.7422
1 -32.5607 -31.7424 -18.8
1 -32.5607 -31.7424 18.8
1 -32.5597 31.7422 -18.7997
1 -32.5597 31.7422 18.7997
1 32.5608 -31.7422 -18.7997
1 32.5608 -31.7422 18.7997
1 32.5618 31.7424 -18.8
1 32.5618 31.7424 18.8
1 18.8 -32.5607 -31.7422
1 18.8 -32.5607 31.7422
1 18.8009 32.5608 -31.7424
1 18.8009 32.5608 31.7424
1 31.7429 -18.8002 -32.561
1 31.7429 -18.8002 32.561
1 31.7428 18.7996 -32.5605
1 -31.7417 -18.7996 -32.5605
1 -21.4771 -15.9656 42.6668
1 -21.477 15.9659 -42.667
1 -21.477 15.9659 42.667
1 -15.9658 -42.6671 -21.4777
1 -15.9658 -42.6671 21.4777
1 -15.9646 42.6667 -21.4774
1 -15.9646 42.6667 21.4774
1 -42.6665 -21.4775 -15.9656
1 -42.6665 -21.4775 15.9656
1 -42.6663 21.4777 -15.9659
1 -42.6663 21.4777 15.9659
1 42.6674 -21.4777 -15.9659
1 42.6674 -21.4777 15.9659
1 42.6676 21.4775 -15.9656
1 42.6676 21.4775 15.9656
1 15.9657 -42.6667 -21.4774
1 15.9657 -42.6667 21.4774
1 15.9669 42.6671 -21.4777
1 15.9669 42.6671 21.4777
1 21.4781 -15.9659 -42.667
1 21.4781 -15.9659 42.667
1 21.4782 15.9656 -42.6668
1 -21.4771 -15.9656 -42.6668
1 -15.5754 -23.6106 42.9363
1 -15.575 23.6106 -42.9363
1 -15.575 23.6106 42.9363
1 -23.6107 -42.9364 -15.5759
1 -23.6107 -42.9364 15.5759
1 -23.6095 42.9361 -15.5756
1 -23.6095 42.9361 15.5756
1 -42.9357 -15.5755 -23.6104
1 -42.9357 -15.5755 23.6104
1 -42.9358 15.576 -23.6109
1 -42.9358 15.576 23.6109
1 42.9369 -15.576 -23.6109
1 42.9369 -15.576 23.6109
1 42.9368 15.5755 -23.6104
1 42.9368 15.5755 23.6104
1 23.6106 -42.9361 -15.5756
1 23.6106 -42.9361 15.5756
1 23.6118 42.9364 -15.5759
1 23.6118 42.9364 15.5759
1 15.5761 -23.6106 -42.9363
1 15.5761 -23.6106 42.9363
1 15.5765 23.6106 -42.9363
1 -15.5754 -23.6106 -42.9363
1 -14.868 -16.7094 49.6566
1 -14.8677 16.7094 -49.6567
1 -14.8677 16.7094 49.6567
1 -16.7094 -49.6567 -14.8684
1 -16.7094 -49.6567 14.8684
1 -16.7083 49.6565 -14.8683
1 -16.7083 49.6565 14.8683
1 -49.6562 -14.8682 -16.7092
1 -49.6562 -14.8682 16.7092
1 -49.656 14.8685 -16.7095
1 -49.656 14.8685 16.7095
1 49.6571 -14.8685 -16.7095
1 49.6571 -14.8685 16.7095
1 49.6573 14.8682 -16.7092
1 49.6573 14.8682 16.7092
1 16.7094 -49.6565 -14.8683
1 16.7094 -49.6565 14.8683
1 16.7105 49.6567 -14.8684
1 16.7105 49.6567 14.8684
1 14.8688 -16.7094 -49.6567
1 14.8688 -16.7094 49.6567
1 14.8691 16.7094 -49.6566
1 -14.868 -16.7094 -49.6566
1 -38.9371 -12.3335 33.4821
1 -38.9373 12.3341 -33.4825
1 -38.9373 12.3341 33.4825
1 -12.3336 -33.4824 -38.9379
1 -12.3336 -33.4824 38.9379
1 -12.3328 33.4822 -38.9377
1 -12.3328 33.4822 38.9377
1 -33.4823 -38.938 -12.334
1 -33.4823 -38.938 12.334
1 -33.4812 38.9376 -12.3336
1 -33.4812 38.9376 12.3336
1 33.4823 -38.9376 -12.3336
1 33.4823 -38.9376 12.3336
1 33.4834 38.938 -12.334
1 33.4834 38.938 12.334
1 12.3339 -33.4822 -38.9377
1 12.3339 -33.4822 38.9377
1 12.3347 33.4824 -38.9379
1 12.3347 33.4824 38.9379
1 38.9384 -12.3341 -33.4825
1 38.9384 -12.3341 33.4825
1 38.9382 12.3335 -33.4821
1 -38.9371 -12.3335 -33.4821
1 -31.3407 -11.9558 39.4321
1 -31.3408 11.9562 -39.4324
1 -31.3408 11.9562 39.4324
1 -11.956 -39.4324 -31.3414
1 -11.956 -39.4324 31.3414
1 -11.955 39.4321 -31.3411
1 -11.955 39.4321 31.3411
1 -39.4321 -31.3413 -11.9561
1 -39.4321 -31.3413 11.9561
1 -39.4313 31.3412 -11.956
1 -39.4313 31.3412 11.956
1 39.4324 -31.3412 -11.956
1 39.4324 -31.3412 11.956
1 39.4332 31.3413 -11.9561
1 39.4332 31.3413 11.9561
1 11.9561 -39.4321 -31.3411
1 11.9561 -39.4321 31.3411
1 11.9571 39.4324 -31.3414
1 11.9571 39.4324 31.3414
1 31.3419 -11.9562 -39.4324
1 31.3419 -11.9562 39.4324
1 31.3418 11.9558 -39.4321
1 -31.3407 -11.9558 -39.4321
1 -38.3543 -5.41724 40.2231
1 -38.3543 5.41751 -40.2233
1 -38.3543 5.41751 40.2233
1 -5.41726 -40.2233 -38.3549
1 -5.41726 -40.2233 38.3549
1 -5.41639 40.2231 -38.3547
1 -5.41639 40.2231 38.3547
1 -40.223 -38.3548 -5.41741
1 -40.223 -38.3548 5.41741
1 -40.2222 38.3548 -5.41735
1 -40.2222 38.3548 5.41735
1 40.2233 -38.3548 -5.41735
1 40.2233 -38.3548 5.41735
1 40.2241 38.3548 -5.41741
1 40.2241 38.3548 5.41741
1 5.41749 -40.2231 -38.3547
1 5.41749 -40.2231 38.3547
1 5.41836 40.2233 -38.3549
1 5.41836 40.2233 38.3549
1 38.3554 -5.41751 -40.2233
1 38.3554 -5.41751 40.2233
1 38.3554 5.41724 -40.2231
1 -38.3543 -5.41724 -40.2231
1 -4.69509 -27.046 52.4048
1 -4.69464 27.046 -52.4048
1 -4.69464 27.046 52.4048
1 -27.046 -52.4049 -4.69541
1 -27.046 -52.4049 4.69541
1 -27.0449 52.4048 -4.69541
1 -27.0449 52.4048 4.69541
1 -52.4042 -4.69525 -27.0459
1 -52.4042 -4.69525 27.0459
1 -52.4043 4.69557 -27.0461
1 -52.4043 4.69557 27.0461
1 52.4054 -4.69557 -27.0461
1 52.4054 -4.69557 27.0461
1 52.4053 4.69525 -27.0459
1 52.4053 4.69525 27.0459
1 27.046 -52.4048 -4.69541
1 27.046 -52.4048 4.69541
1 27.0471 52.4049 -4.69541
1 27.0471 52.4049 4.69541
1 4.69574 -27.046 -52.4048
1 4.69574 -27.046 52.4048
1 4.69619 27.046 -52.4048
1 -4.69509 -27.046 -52.4048
1 -11.0336 -19.7689 52.3103
1 -11.0332 19.7689 -52.3103
1 -11.0332 19.7689 52.3103
1 -19.7689 -52.3103 -11.034
1 -19.7689 -52.3103 11.034
1 -19.7678 52.3102 -11.0339
1 -19.7678 52.3102 11.0339
1 -52.3098 -11.0339 -19.7688
1 -52.3098 -11.0339 19.7688
1 -52.3097 11.034 -19.769
1 -52.3097 11.034 19.769
1 52.3108 -11.034 -19.769
1 52.3108 -11.034 19.769
1 52.3109 11.0339 -19.7688
1 52.3109 11.0339 19.7688
1 19.7689 -52.3102 -11.0339
1 19.7689 -52.3102 11.0339
1 19.77 52.3103 -11.034
1 19.77 52.3103 11.034
1 11.0343 -19.7689 -52.3103
1 11.0343 -19.7689 52.3103
1 11.0347 19.7689 -52.3103
1 -11.0336 -19.7689 -52.3103
1 -11.3374 -26.3538 45.3624
1 -11.3369 26.3537 -45.3623
1 -11.3369 26.3537 45.3623
1 -26.3538 -45.3624 -11.3378
1 -26.3538 -45.3624 11.3378
1 -26.3527 45.3622 -11.3376
1 -26.3527 45.3622 11.3376
1 -45.3616 -11.3374 -26.3535
1 -45.3616 -11.3374 26.3535
1 -45.3619 11.338 -26.354
1 -45.3619 11.338 26.354
1 45.363 -11.338 -26.354
1 45.363 -11.338 26.354
1 45.3627 11.3374 -26.3535
1 45.3627 11.3374 26.3535
1 26.3538 -45.3622 -11.3376
1 26.3538 -45.3622 11.3376
1 26.3549 45.3624 -11.3378
1 26.3549 45.3624 11.3378
1 11.338 -26.3537 -45.3623
1 11.338 -26.3537 45.3623
1 11.3386 26.3538 -45.3624
1 -11.3374 -26.3538 -45.3624
1 -17.2414 -12.4059 52.3038
1 -17.2412 12.4058 -52.3038
1 -17.2412 12.4058 52.3038
1 -12.4059 -52.3039 -17.2419
1 -12.4059 -52.3039 17.2419
1 -12.4047 52.3037 -17.2418
1 -12.4047 52.3037 17.2418
1 -52.3034 -17.2418 -12.4058
1 -52.3034 -17.2418 12.4058
1 -52.3031 17.2419 -12.4059
1 -52.3031 17.2419 12.4059
1 52.3042 -17.2419 -12.4059
1 52.3042 -17.2419 12.4059
1 52.3045 17.2418 -12.4058
1 52.3045 17.2418 12.4058
1 12.4058 -52.3037 -17.2418
1 12.4058 -52.3037 17.2418
1 12.407 52.3039 -17.2419
1 12.407 52.3039 17.2419
1 17.2423 -12.4058 -52.3038
1 17.2423 -12.4058 52.3038
1 17.2425 12.4059 -52.3038
1 -17.2414 -12.4059 -52.3038
1 -23.3828 -4.95359 52.4048
1 -23.3827 4.95367 -52.4048
1 -23.3827 4.95367 52.4048
1 -4.95371 -52.4049 -23.3834
1 -4.95371 -52.4049 23.3834
1 -4.95245 52.4046 -23.3832
1 -4.95245 52.4046 23.3832
1 -52.4045 -23.3832 -4.95357
1 -52.4045 -23.3832 4.95357
1 -52.404 23.3833 -4.95369
1 -52.404 23.3833 4.9537
1 52.4051 -23.3833 -4.95369
1 52.4051 -23.3833 4.9537
1 52.4056 23.3832 -4.95357
1 52.4056 23.3832 4.95357
1 4.95356 -52.4046 -23.3832
1 4.95356 -52.4046 23.3832
1 4.95481 52.4049 -23.3834
1 4.95481 52.4049 23.3834
1 23.3838 -4.95367 -52.4048
1 23.3838 -4.95367 52.4048
1 23.3839 4.95359 -52.4048
1 -23.3828 -4.95359 -52.4048
1 -23.5872 -11.4431 45.1998
1 -23.5872 11.4434 -45.2001
1 -23.5872 11.4434 45.2001
1 -11.4434 -45.2002 -23.5879
1 -11.4434 -45.2002 23.5879
1 -11.442 45.1997 -23.5875
1 -11.442 45.1997 23.5875
1 -45.1996 -23.5876 -11.4431
1 -45.1996 -23.5876 11.4431
1 -45.1992 23.5878 -11.4434
1 -45.1992 23.5878 11.4434
1 45.2003 -23.5878 -11.4434
1 45.2003 -23.5878 11.4434
1 45.2007 23.5876 -11.4431
1 45.2007 23.5876 11.4431
1 11.4432 -45.1997 -23.5875
1 11.4432 -45.1997 23.5875
1 11.4445 45.2002 -23.5879
1 11.4445 45.2002 23.5879
1 23.5883 -11.4434 -45.2001
1 23.5883 -11.4434 45.2001
1 23.5883 11.4431 -45.1998
1 -23.5872 -11.4431 -45.1998
1 -18.4288 -25.9579 38.7102
1 -18.4282 25.9579 -38.7101
1 -18.4282 25.9579 38.7101
1 -25.9579 -38.7104 -18.4292
1 -25.9579 -38.7104 18.4292
1 -25.9568 38.71 -18.4289
1 -25.9568 38.71 18.4289
1 -38.7096 -18.4288 -25.9576
1 -38.7096 -18.4288 25.9576
1 -38.7097 18.4293 -25.9581
1 -38.7097 18.4293 25.9581
1 38.7108 -18.4293 -25.9581
1 38.7108 -18.4293 25.9581
1 38.7107 18.4288 -25.9576
1 38.7107 18.4288 25.9576
1 25.9579 -38.71 -18.4289
1 25.9579 -38.71 18.4289
1 25.959 38.7104 -18.4292
1 25.959 38.7104 18.4292
1 18.4293 -25.9579 -38.7101
1 18.4293 -25.9579 38.7101
1 18.4299 25.9579 -38.7102
1 -18.4288 -25.9579 -38.7102
1 -24.0416 -18.13 38.204
1 -24.0415 18.1303 -38.2042
1 -24.0415 18.1303 38.2042
1 -18.1301 -38.2043 -24.0422
1 -18.1301 -38.2043 24.0422
1 -18.1291 38.2039 -24.0419
1 -18.1291 38.2039 24.0419
1 -38.2037 -24.042 -18.13
1 -38.2037 -24.042 18.13
1 -38.2034 24.0421 -18.1303
1 -38.2034 24.0421 18.1303
1 38.2045 -24.0421 -18.1303
1 38.2045 -24.0421 18.1303
1 38.2048 24.042 -18.13
1 38.2048 24.042 18.13
1 18.1302 -38.2039 -24.0419
1 18.1302 -38.2039 24.0419
1 18.1312 38.2043 -24.0422
1 18.1312 38.2043 24.0422
1 24.0426 -18.1303 -38.2042
1 24.0426 -18.1303 38.2042
1 24.0427 18.13 -38.204
1 -24.0416 -18.13 -38.204
1 -26.1443 -26.2127 32.8319
1 -26.1439 26.2129 -32.8319
1 -26.1439 26.2129 32.8319
1 -26.2127 -32.832 -26.1448
1 -26.2127 -32.832 26.1448
1 -26.2118 32.8319 -26.1445
1 -26.2118 32.8319 26.1445
1 -32.8316 -26.1445 -26.2128
1 -32.8316 -26.1445 26.2128
1 -32.8312 26.1448 -26.2129
1 -32.8312 26.1448 26.2129
1 32.8323 -26.1448 -26.2129
1 32.8323 -26.1448 26.2129
1 32.8327 26.1445 -26.2128
1 32.8327 26.1445 26.2128
1 26.2129 -32.8319 -26.1445
1 26.2129 -32.8319 26.1445
1 26.2138 32.832 -26.1448
1 26.2138 32.832 26.1448
1 26.145 -26.2129 -32.8319
1 26.145 -26.2129 32.8319
1 26.1454 26.2127 -32.8319
1 -26.1443 -26.2127 -32.8319
1 -28.0455 -2.66891 50.4432
1 -28.0454 2.66904 -50.4432
1 -28.0454 2.66904 50.4432
1 -2.66902 -50.4433 -28.0461
1 -2.66902 -50.4433 28.0461
1 -2.66784 50.4431 -28.0459
1 -2.66784 50.4431 28.0459
1 -50.443 -28.046 -2.66897
1 -50.443 -28.046 2.66897
1 -50.4423 28.046 -2.66899
1 -50.4423 28.046 2.66899
1 50.4434 -28.046 -2.66899
1 50.4434 -28.046 2.66899
1 50.4441 28.046 -2.66897
1 50.4441 28.046 2.66897
1 2.66894 -50.4431 -28.0459
1 2.66894 -50.4431 28.0459
1 2.67012 50.4433 -28.0461
1 2.67012 50.4433 28.0461
1 28.0465 -2.66904 -50.4432
1 28.0465 -2.66904 50.4432
1 28.0466 2.66891 -50.4432
1 -28.0455 -2.66891 -50.4432
1 -35.3387 -2.76831 44.1066
1 -35.3387 2.76852 -44.1066
1 -35.3387 2.76852 44.1066
1 -2.76832 -44.1066 -35.3393
1 -2.76832 -44.1066 35.3393
1 -2.7674 44.1065 -35.3392
1 -2.7674 44.1065 35.3392
1 -44.1064 -35.3392 -2.76842
1 -44.1064 -35.3392 2.76842
1 -44.1057 35.3393 -2.76841
1 -44.1057 35.3393 2.76841
1 44.1068 -35.3393 -2.76841
1 44.1068 -35.3393 2.76841
1 44.1075 35.3392 -2.76842
1 44.1075 35.3392 2.76842
1 2.7685 -44.1065 -35.3392
1 2.7685 -44.1065 35.3392
1 2.76943 44.1066 -35.3393
1 2.76943 44.1066 35.3393
1 35.3398 -2.76852 -44.1066
1 35.3398 -2.76852 44.1066
1 35.3398 2.76831 -44.1066
1 -35.3387 -2.76831 -44.1066
1 -28.6512 -9.59871 43.7303
1 -28.6513 9.59904 -43.7306
1 -28.6513 9.59904 43.7306
1 -9.59895 -43.7307 -28.652
1 -9.59895 -43.7307 28.652
1 -9.5977 43.7302 -28.6516
1 -9.5977 43.7302 28.6516
1 -43.7302 -28.6518 -9.59885
1 -43.7302 -28.6518 9.59885
1 -43.7296 28.6518 -9.5989
1 -43.7296 28.6518 9.5989
1 43.7307 -28.6518 -9.5989
1 43.7307 -28.6518 9.5989
1 43.7313 28.6518 -9.59885
1 43.7313 28.6518 9.59885
1 9.59881 -43.7302 -28.6516
1 9.59881 -43.7302 28.6516
1 9.60005 43.7307 -28.652
1 9.60005 43.7307 28.652
1 28.6524 -9.59904 -43.7306
1 28.6524 -9.59904 43.7306
1 28.6523 9.59871 -43.7303
1 -28.6512 -9.59871 -43.7303
1 -42.6264 -2.77272 37.7989
1 -42.6264 2.77302 -37.799
1 -42.6264 2.77302 37.799
1 -2.7727 -37.799 -42.627
1 -2.7727 -37.799 42.627
1 -2.77194 37.7989 -42.6269
1 -2.77194 37.7989 42.6269
1 -37.7988 -42.6269 -2.77288
1 -37.7988 -42.6269 2.77288
1 -37.798 42.627 -2.77287
1 -37.798 42.627 2.77287
1 37.7991 -42.627 -2.77287
1 37.7991 -42.627 2.77287
1 37.7999 42.6269 -2.77288
1 37.7999 42.6269 2.77288
1 2.77305 -37.7989 -42.6269
1 2.77305 -37.7989 42.6269
1 2.7738 37.799 -42.627
1 2.7738 37.799 42.627
1 42.6275 -2.77302 -37.799
1 42.6275 -2.77302 37.799
1 42.6275 2.77272 -37.7989
1 -42.6264 -2.77272 -37.7989
1 -50.0678 -2.67895 31.6468
1 -50.068 2.67929 -31.6471
1 -50.068 2.67929 31.6471
1 -2.67886 -31.647 -50.0685
1 -2.67886 -31.647 50.0685
1 -2.67828 31.6469 -50.0684
1 -2.67828 31.6469 50.0684
1 -31.6469 -50.0685 -2.67913
1 -31.6469 -50.0685 2.67913
1 -31.6459 50.0684 -2.67911
1 -31.6459 50.0684 2.67911