3072
Atoms. Timestep: 116000
1 8.74203 10.1504 22.5986
1 17.7227 5.27266 19.4095
1 4.62563 13.1471 24.9289
1 9.89668 5.11487 24.858
1 12.3971 12.9164 19.2619
1 14.5094 2.60578 23.139
1 22.391 2.71179 17.6172
1 16.5982 10.5433 17.6626
1 10.8585 8.63937 21.5369
1 8.18949 12.7264 21.6476
1 7.38509 9.21908 24.8679
1 19.284 6.50361 17.4699
1 15.1953 6.35059 20.0807
1 18.4664 2.73848 20.3912
1 2.62828 14.7053 26.2138
1 5.59208 10.8865 26.1757
1 5.97824 14.1284 22.6909
1 8.25595 6.9018 26.1698
1 10.8213 2.78091 26.2066
1 11.1046 5.92138 22.51
1 9.89108 13.994 19.7741
1 13.0331 10.3538 20.3979
1 14.3137 14.575 17.5548
1 12.8965 1.32676 25.0707
1 16.8165 1.38367 22.1853
1 13.5308 4.72063 21.7632
1 20.6675 1.39918 19.3132
1 24.7071 1.36438 16.6234
1 21.5519 5.1619 16.4905
1 15.0109 9.26758 19.6849
1 18.5385 9.0143 16.3723
1 16.2783 13.4246 16.7601
1 7.68809 10.8922 23.145
1 8.98886 8.86534 23.099
1 9.5861 10.7334 21.6373
1 16.9053 4.59945 20.3218
1 18.9172 4.66518 19.0021
1 17.3275 6.51897 18.897
1 5.62276 12.3932 24.3081
1 4.20956 14.3483 24.369
1 4.14814 12.8096 26.191
1 10.8802 4.30157 24.2905
1 9.52231 6.31472 24.2236
1 9.49345 4.82928 26.1702
1 13.6724 12.3501 19.1556
1 12.0626 14.1579 18.6342
1 11.4552 12.1475 20.0331
1 15.3151 3.23996 22.1909
1 13.2552 3.10154 23.488
1 14.8742 1.35785 23.6323
1 23.1554 3.29685 16.6101
1 21.2569 3.38682 18.0889
1 22.6782 1.39005 17.9791
1 17.2974 11.1261 16.5585
1 15.6449 11.2441 18.4133
1 16.792 9.17387 18.0544
1 11.8428 7.77042 21.0303
1 10.7392 10.0324 21.2011
1 9.98785 8.06932 22.5245
1 9.33072 12.0491 21.1848
1 7.86907 13.9959 21.1466
1 7.38464 12.1605 22.6442
1 8.31584 8.39429 24.239
1 7.00155 10.4159 24.2663
1 6.97702 8.93014 26.1707
1 19.9812 7.04123 16.3808
1 18.1423 7.1669 17.9473
1 19.7019 5.28363 18.0251
1 16.1238 7.12628 19.3259
1 13.8647 6.7134 20.3658
1 15.6412 5.11498 20.6371
1 19.2923 3.40401 19.486
1 17.3117 3.36781 20.8612
1 18.7129 1.39921 20.7107
1 1.56236 15.4397 26.8412
1 3.27316 13.6584 26.8697
1 3.15407 15.0534 24.9654
1 4.75482 11.7564 26.8656
1 6.18419 9.83568 26.8648
1 6.02672 11.1947 24.8879
1 4.89479 14.8197 23.2484
1 6.31739 12.8758 23.1984
1 6.73407 14.6596 21.6406
1 7.51945 7.85372 26.8648
1 8.76573 5.80033 26.8619
1 8.64113 7.18082 24.8573
1 10.0139 3.72286 26.8624
1 11.3242 1.61657 26.8566
1 11.3487 3.17101 24.9684
1 10.146 6.76008 23.0539
1 11.5297 4.7504 23.1396
1 11.851 6.42094 21.4771
1 8.67566 14.593 20.1615
1 10.2107 12.7304 20.3187
1 10.7546 14.6746 18.8716
1 11.7207 10.8189 20.537
1 13.0986 7.91889 20.3668
1 14.0061 11.3251 20.0718
1 12.9569 14.932 17.8192
1 14.7235 12.3064 18.2021
1 15.2934 15.519 17.1066
1 12.0943 0.707248 26.0686
1 13.993 0.692195 24.4859
1 12.5015 2.53903 24.5149
1 15.9452 0.69696 23.031
1 17.838 0.697226 21.536
1 16.5245 2.68884 21.7928
1 12.7439 4.16816 22.7657
1 14.8451 4.36473 21.5247
1 13.0524 5.80657 21.0954
1 19.7406 0.698503 20.0819
1 21.729 0.698577 18.7355
1 20.4286 2.74356 19.0085
1 23.7702 0.697083 17.4288
1 20.8533 4.62677 17.5725
1 13.6852 9.10609 20.1831
1 15.9644 8.49544 19.0148
1 15.2057 10.6634 19.6296
1 17.8324 8.44963 17.4523
1 15.0053 13.3303 17.4066
1 -8.74148 -10.1504 22.5986
1 -8.74126 10.1504 -22.5986
1 -8.74127 10.1504 22.5986
1 -10.1503 -22.5986 -8.74163
1 -10.1503 -22.5986 8.74163
1 -10.1499 22.5986 -8.74166
1 -10.1499 22.5986 8.74166
1 -22.5984 -8.74163 -10.1504
1 -22.5984 -8.74163 10.1504
1 -22.5982 8.74166 -10.1504
1 -22.5982 8.74166 10.1504
1 22.5988 -8.74166 -10.1504
1 22.5988 -8.74166 10.1504
1 22.5989 8.74163 -10.1504
1 22.5989 8.74163 10.1504
1 10.1504 -22.5986 -8.74166
1 10.1504 -22.5986 8.74166
1 10.1509 22.5986 -8.74164
1 10.1509 22.5986 8.74163
1 8.74181 -10.1504 -22.5986
1 8.74181 -10.1504 22.5986
1 8.74203 10.1504 -22.5986
1 -8.74148 -10.1504 -22.5986
1 -17.7221 -5.27266 19.4095
1 -17.722 5.27269 -19.4095
1 -17.722 5.27269 19.4095
1 -5.27258 -19.4095 -17.7223
1 -5.27258 -19.4095 17.7223
1 -5.27221 19.4095 -17.7223
1 -5.27221 19.4095 17.7223
1 -19.4095 -17.7223 -5.27268
1 -19.4094 -17.7223 5.27268
1 -19.4091 17.7223 -5.27267
1 -19.4091 17.7223 5.27267
1 19.4096 -17.7223 -5.27267
1 19.4096 -17.7223 5.27267
1 19.41 17.7223 -5.27268
1 19.41 17.7223 5.27268
1 5.27276 -19.4095 -17.7223
1 5.27276 -19.4095 17.7223
1 5.27314 19.4095 -17.7223
1 5.27313 19.4095 17.7223
1 17.7226 -5.27268 -19.4095
1 17.7226 -5.27268 19.4095
1 17.7227 5.27266 -19.4095
1 -17.7221 -5.27266 -19.4095
1 -4.62508 -13.1471 24.9289
1 -4.62482 13.1471 -24.9289
1 -4.62482 13.1471 24.9289
1 -13.1471 -24.9289 -4.62521
1 -13.1471 -24.9289 4.62521
1 -13.1466 24.9289 -4.62524
1 -13.1466 24.9289 4.62524
1 -24.9287 -4.62521 -13.1471
1 -24.9287 -4.62521 13.1471
1 -24.9286 4.62524 -13.1471
1 -24.9286 4.62524 13.1471
1 24.9291 -4.62524 -13.1471
1 24.9291 -4.62524 13.1471
1 24.9292 4.62521 -13.1471
1 24.9292 4.62521 13.1471
1 13.1471 -24.9289 -4.62524
1 13.1471 -24.9289 4.62524
1 13.1476 24.9289 -4.62521
1 13.1476 24.9289 4.62521
1 4.62537 -13.1471 -24.9289
1 4.62537 -13.1471 24.9289
1 4.62563 13.1471 -24.9289
1 -4.62508 -13.1471 -24.9289
1 -9.89613 -5.11487 24.858
1 -9.89603 5.11487 -24.858
1 -9.89603 5.11487 24.858
1 -5.11484 -24.858 -9.89635
1 -5.11484 -24.858 9.89635
1 -5.11435 24.858 -9.89636
1 -5.11435 24.858 9.89636
1 -24.8579 -9.89634 -5.11486
1 -24.8579 -9.89634 5.11486
1 -24.8576 9.89637 -5.11488
1 -24.8576 9.89637 5.11488
1 24.8582 -9.89637 -5.11488
1 24.8582 -9.89637 5.11488
1 24.8584 9.89634 -5.11486
1 24.8584 9.89634 5.11486
1 5.1149 -24.858 -9.89636
1 5.1149 -24.858 9.89636
1 5.11539 24.858 -9.89635
1 5.11539 24.858 9.89635
1 9.89658 -5.11487 -24.858
1 9.89658 -5.11487 24.858
1 9.89668 5.11487 -24.858
1 -9.89613 -5.11487 -24.858
1 -12.3965 -12.9164 19.2619
1 -12.3963 12.9164 -19.2619
1 -12.3963 12.9164 19.2619
1 -12.9164 -19.2619 -12.3967
1 -12.9164 -19.2619 12.3967
1 -12.916 19.2619 -12.3967
1 -12.916 19.2619 12.3967
1 -19.2618 -12.3967 -12.9164
1 -19.2618 -12.3967 12.9164
1 -19.2615 12.3967 -12.9164
1 -19.2615 12.3967 12.9164
1 19.2621 -12.3967 -12.9164
1 19.2621 -12.3967 12.9164
1 19.2623 12.3967 -12.9164
1 19.2623 12.3967 12.9164
1 12.9165 -19.2619 -12.3967
1 12.9165 -19.2619 12.3967
1 12.9169 19.2619 -12.3967
1 12.9169 19.2619 12.3967
1 12.3968 -12.9164 -19.2619
1 12.3968 -12.9164 19.2619
1 12.3971 12.9164 -19.2619
1 -12.3965 -12.9164 -19.2619
1 -14.5088 -2.60578 23.139
1 -14.5087 2.6058 -23.139
1 -14.5087 2.6058 23.139
1 -2.60574 -23.139 -14.509
1 -2.60574 -23.139 14.509
1 -2.60529 23.139 -14.509
1 -2.60529 23.139 14.509
1 -23.1389 -14.509 -2.60579
1 -23.1388 -14.509 2.60579
1 -23.1386 14.5091 -2.60579
1 -23.1385 14.5091 2.60579
1 23.1391 -14.5091 -2.60579
1 23.1391 -14.5091 2.60579
1 23.1394 14.509 -2.60579
1 23.1394 14.509 2.60579
1 2.60584 -23.139 -14.509
1 2.60584 -23.139 14.509
1 2.60629 23.139 -14.509
1 2.60629 23.139 14.509
1 14.5093 -2.6058 -23.139
1 14.5093 -2.6058 23.139
1 14.5094 2.60578 -23.139
1 -14.5088 -2.60578 -23.139
1 -22.3905 -2.71179 17.6172
1 -22.3904 2.71181 -17.6172
1 -22.3904 2.71181 17.6172
1 -2.71168 -17.6172 -22.3907
1 -2.71168 -17.6172 22.3907
1 -2.71136 17.6172 -22.3907
1 -2.71136 17.6172 22.3907
1 -17.6172 -22.3907 -2.7118
1 -17.6172 -22.3907 2.7118
1 -17.6167 22.3907 -2.7118
1 -17.6167 22.3907 2.7118
1 17.6173 -22.3907 -2.7118
1 17.6173 -22.3907 2.7118
1 17.6177 22.3907 -2.7118
1 17.6177 22.3907 2.7118
1 2.71191 -17.6172 -22.3907
1 2.71191 -17.6172 22.3907
1 2.71223 17.6172 -22.3907
1 2.71223 17.6172 22.3907
1 22.3909 -2.71181 -17.6172
1 22.3909 -2.71181 17.6172
1 22.391 2.71179 -17.6172
1 -22.3905 -2.71179 -17.6172
1 -16.5977 -10.5433 17.6626
1 -16.5975 10.5434 -17.6626
1 -16.5975 10.5434 17.6626
1 -10.5433 -17.6626 -16.5978
1 -10.5433 -17.6626 16.5978
1 -10.5429 17.6626 -16.5978
1 -10.5429 17.6626 16.5978
1 -17.6625 -16.5978 -10.5434
1 -17.6625 -16.5978 10.5434
1 -17.6622 16.5978 -10.5433
1 -17.6622 16.5978 10.5433
1 17.6627 -16.5978 -10.5433
1 17.6628 -16.5978 10.5433
1 17.6631 16.5978 -10.5434
1 17.6631 16.5978 10.5434
1 10.5434 -17.6626 -16.5978
1 10.5435 -17.6626 16.5978
1 10.5438 17.6626 -16.5978
1 10.5438 17.6627 16.5978
1 16.598 -10.5434 -17.6626
1 16.598 -10.5434 17.6626
1 16.5982 10.5433 -17.6626
1 -16.5977 -10.5433 -17.6626
1 -10.8579 -8.63937 21.5369
1 -10.8577 8.63937 -21.5369
1 -10.8577 8.63937 21.5369
1 -8.63931 -21.5369 -10.8581
1 -8.63931 -21.5369 10.8581
1 -8.63888 21.5369 -10.8581
1 -8.63888 21.5369 10.8581
1 -21.5367 -10.8581 -8.63936
1 -21.5367 -10.8581 8.63936
1 -21.5365 10.8581 -8.63938
1 -21.5365 10.8581 8.63938
1 21.5371 -10.8581 -8.63938
1 21.5371 -10.8581 8.63938
1 21.5373 10.8581 -8.63936
1 21.5373 10.8581 8.63936
1 8.63943 -21.5369 -10.8581
1 8.63943 -21.5369 10.8581
1 8.63986 21.5369 -10.8581
1 8.63986 21.5369 10.8581
1 10.8583 -8.63936 -21.5369
1 10.8583 -8.63937 21.5369
1 10.8585 8.63937 -21.5369
1 -10.8579 -8.63937 -21.5369
1 -8.18893 -12.7264 21.6476
1 -8.18868 12.7264 -21.6476
1 -8.18868 12.7264 21.6476
1 -12.7263 -21.6476 -8.18908
1 -12.7263 -21.6476 8.18908
1 -12.7259 21.6476 -8.18908
1 -12.7259 21.6476 8.18908
1 -21.6474 -8.18907 -12.7264
1 -21.6474 -8.18907 12.7264
1 -21.6472 8.1891 -12.7264
1 -21.6472 8.1891 12.7264
1 21.6478 -8.18909 -12.7264
1 21.6478 -8.18909 12.7264
1 21.648 8.18907 -12.7264
1 21.648 8.18907 12.7264
1 12.7265 -21.6476 -8.18908
1 12.7265 -21.6476 8.18908
1 12.7269 21.6476 -8.18908
1 12.7269 21.6476 8.18908
1 8.18923 -12.7264 -21.6476
1 8.18923 -12.7264 21.6476
1 8.18949 12.7264 -21.6476
1 -8.18893 -12.7264 -21.6476
1 -7.38454 -9.21908 24.8679
1 -7.38435 9.21906 -24.8679
1 -7.38436 9.21906 24.8679
1 -9.21904 -24.8679 -7.38471
1 -9.21904 -24.8679 7.38471
1 -9.21855 24.8679 -7.38473
1 -9.21856 24.8679 7.38474
1 -24.8677 -7.38471 -9.21906
1 -24.8677 -7.38471 9.21906
1 -24.8675 7.38473 -9.21909
1 -24.8675 7.38474 9.21909
1 24.8681 -7.38473 -9.21908
1 24.8681 -7.38473 9.21908
1 24.8683 7.38471 -9.21906
1 24.8683 7.38471 9.21906
1 9.21911 -24.8679 -7.38473
1 9.21911 -24.8679 7.38473
1 9.21959 24.8679 -7.38471
1 9.21959 24.8679 7.38471
1 7.38491 -9.21907 -24.8679
1 7.3849 -9.21906 24.8679
1 7.38509 9.21908 -24.8679
1 -7.38454 -9.21908 -24.8679
1 -19.2834 -6.50361 17.4699
1 -19.2833 6.50363 -17.4699
1 -19.2833 6.50363 17.4699
1 -6.50351 -17.4699 -19.2837
1 -6.50352 -17.4699 19.2837
1 -6.50317 17.4699 -19.2836
1 -6.50317 17.4698 19.2836
1 -17.4698 -19.2837 -6.50363
1 -17.4698 -19.2837 6.50363
1 -17.4694 19.2836 -6.50361
1 -17.4694 19.2836 6.50361
1 17.4699 -19.2836 -6.50361
1 17.4699 -19.2836 6.50361
1 17.4703 19.2837 -6.50363
1 17.4703 19.2837 6.50363
1 6.50373 -17.4699 -19.2836
1 6.50373 -17.4699 19.2836
1 6.50407 17.4699 -19.2837
1 6.50407 17.4699 19.2837
1 19.2839 -6.50363 -17.4699
1 19.2839 -6.50363 17.4699
1 19.284 6.50361 -17.4699
1 -19.2834 -6.50361 -17.4699
1 -15.1948 -6.35059 20.0807
1 -15.1946 6.35061 -20.0807
1 -15.1946 6.35061 20.0807
1 -6.35052 -20.0807 -15.195
1 -6.35052 -20.0807 15.195
1 -6.35013 20.0807 -15.195
1 -6.35013 20.0807 15.195
1 -20.0806 -15.195 -6.3506
1 -20.0806 -15.195 6.3506
1 -20.0803 15.195 -6.3506
1 -20.0803 15.195 6.3506
1 20.0808 -15.195 -6.3506
1 20.0808 -15.195 6.3506
1 20.0811 15.195 -6.3506
1 20.0811 15.195 6.3506
1 6.35068 -20.0807 -15.195
1 6.35068 -20.0807 15.195
1 6.35107 20.0807 -15.195
1 6.35107 20.0807 15.195
1 15.1952 -6.3506 -20.0807
1 15.1952 -6.35061 20.0807
1 15.1953 6.35059 -20.0807
1 -15.1948 -6.35059 -20.0807
1 -18.4658 -2.73848 20.3912
1 -18.4657 2.7385 -20.3912
1 -18.4657 2.7385 20.3912
1 -2.7384 -20.3912 -18.4661
1 -2.7384 -20.3912 18.4661
1 -2.73802 20.3912 -18.466
1 -2.73803 20.3912 18.466
1 -20.3911 -18.466 -2.73849
1 -20.3911 -18.466 2.73849
1 -20.3908 18.4661 -2.73849
1 -20.3908 18.4661 2.73849
1 20.3913 -18.4661 -2.73849
1 20.3913 -18.4661 2.73849
1 20.3917 18.466 -2.73849
1 20.3917 18.466 2.73849
1 2.73858 -20.3912 -18.466
1 2.73858 -20.3912 18.466
1 2.73896 20.3912 -18.4661
1 2.73895 20.3912 18.4661
1 18.4663 -2.7385 -20.3912
1 18.4663 -2.7385 20.3912
1 18.4664 2.73848 -20.3912
1 -18.4658 -2.73848 -20.3912
1 -2.62773 -14.7053 26.2138
1 -2.62745 14.7053 -26.2138
1 -2.62745 14.7053 26.2138
1 -14.7053 -26.2138 -2.62786
1 -14.7053 -26.2138 2.62786
1 -14.7047 26.2138 -2.62787
1 -14.7047 26.2138 2.62787
1 -26.2136 -2.62785 -14.7053
1 -26.2136 -2.62785 14.7053
1 -26.2135 2.62788 -14.7053
1 -26.2135 2.62788 14.7053
1 26.2141 -2.62788 -14.7053
1 26.2141 -2.62788 14.7053
1 26.2141 2.62785 -14.7053
1 26.2141 2.62785 14.7053
1 14.7053 -26.2138 -2.62787
1 14.7053 -26.2138 2.62787
1 14.7058 26.2138 -2.62786
1 14.7058 26.2138 2.62786
1 2.628 -14.7053 -26.2138
1 2.628 -14.7053 26.2138
1 2.62828 14.7053 -26.2138
1 -2.62773 -14.7053 -26.2138
1 -5.59153 -10.8865 26.1757
1 -5.59131 10.8865 -26.1757
1 -5.59131 10.8865 26.1757
1 -10.8865 -26.1757 -5.59168
1 -10.8865 -26.1757 5.59168
1 -10.886 26.1757 -5.5917
1 -10.886 26.1757 5.59171
1 -26.1755 -5.59169 -10.8865
1 -26.1755 -5.59169 10.8865
1 -26.1754 5.5917 -10.8865
1 -26.1754 5.5917 10.8865
1 26.1759 -5.5917 -10.8865
1 26.1759 -5.5917 10.8865
1 26.1761 5.59169 -10.8865
1 26.1761 5.59169 10.8865
1 10.8865 -26.1757 -5.59171
1 10.8866 -26.1757 5.5917
1 10.8871 26.1757 -5.59169
1 10.8871 26.1757 5.59168
1 5.59187 -10.8865 -26.1757
1 5.59186 -10.8865 26.1757
1 5.59207 10.8865 -26.1757
1 -5.59153 -10.8865 -26.1757
1 -5.97769 -14.1284 22.6909
1 -5.97741 14.1283 -22.6909
1 -5.97741 14.1283 22.6909
1 -14.1283 -22.6909 -5.97782
1 -14.1283 -22.6909 5.97782
1 -14.1278 22.6909 -5.97783
1 -14.1278 22.6909 5.97783
1 -22.6907 -5.97781 -14.1283
1 -22.6907 -5.97781 14.1283
1 -22.6906 5.97783 -14.1284
1 -22.6906 5.97783 14.1284
1 22.6911 -5.97783 -14.1284
1 22.6911 -5.97783 14.1284
1 22.6913 5.97781 -14.1283
1 22.6913 5.97781 14.1283
1 14.1284 -22.6909 -5.97783
1 14.1284 -22.6909 5.97783
1 14.1288 22.6909 -5.97782
1 14.1288 22.6909 5.97782
1 5.97796 -14.1283 -22.6909
1 5.97796 -14.1283 22.6909
1 5.97824 14.1284 -22.6909
1 -5.97769 -14.1284 -22.6909
1 -8.25541 -6.9018 26.1698
1 -8.25526 6.90179 -26.1698
1 -8.25526 6.90179 26.1698
1 -6.90178 -26.1698 -8.2556
1 -6.90178 -26.1698 8.2556
1 -6.90126 26.1698 -8.25561
1 -6.90126 26.1698 8.25561
1 -26.1696 -8.2556 -6.90179
1 -26.1696 -8.2556 6.90179
1 -26.1694 8.25561 -6.9018
1 -26.1694 8.25561 6.9018
1 26.1699 -8.25561 -6.9018
1 26.1699 -8.25561 6.9018
1 26.1702 8.2556 -6.90179
1 26.1702 8.2556 6.90179
1 6.90181 -26.1698 -8.25561
1 6.90181 -26.1698 8.25561
1 6.90233 26.1698 -8.2556
1 6.90233 26.1698 8.2556
1 8.25581 -6.90179 -26.1698
1 8.25581 -6.90179 26.1698
1 8.25595 6.9018 -26.1698
1 -8.2554 -6.9018 -26.1698
1 -10.8208 -2.78091 26.2066
1 -10.8207 2.78091 -26.2066
1 -10.8207 2.78091 26.2066
1 -2.78089 -26.2066 -10.821
1 -2.7809 -26.2066 10.821
1 -2.78038 26.2066 -10.821
1 -2.78038 26.2066 10.821
1 -26.2064 -10.821 -2.78091
1 -26.2064 -10.821 2.78091
1 -26.2062 10.821 -2.78092
1 -26.2062 10.821 2.78092
1 26.2067 -10.821 -2.78092
1 26.2067 -10.821 2.78092
1 26.207 10.821 -2.78091
1 26.207 10.821 2.7809
1 2.78093 -26.2066 -10.821
1 2.78093 -26.2066 10.821
1 2.78145 26.2066 -10.821
1 2.78145 26.2066 10.821
1 10.8212 -2.78091 -26.2066
1 10.8212 -2.78091 26.2066
1 10.8213 2.78091 -26.2066
1 -10.8208 -2.78091 -26.2066
1 -11.1041 -5.92138 22.51
1 -11.1039 5.92139 -22.51
1 -11.1039 5.92139 22.51
1 -5.92133 -22.51 -11.1043
1 -5.92133 -22.51 11.1043
1 -5.92089 22.51 -11.1043
1 -5.92089 22.51 11.1043
1 -22.5098 -11.1043 -5.92137
1 -22.5098 -11.1043 5.92137
1 -22.5096 11.1043 -5.9214
1 -22.5096 11.1043 5.9214
1 22.5102 -11.1043 -5.9214
1 22.5102 -11.1043 5.9214
1 22.5104 11.1043 -5.92137
1 22.5104 11.1043 5.92137
1 5.92144 -22.51 -11.1043
1 5.92144 -22.51 11.1043
1 5.92188 22.51 -11.1043
1 5.92188 22.51 11.1043
1 11.1045 -5.92139 -22.51
1 11.1045 -5.92139 22.51
1 11.1046 5.92138 -22.51
1 -11.1041 -5.92138 -22.51
1 -9.89053 -13.9939 19.7741
1 -9.89025 13.9939 -19.7741
1 -9.89025 13.9939 19.7741
1 -13.9939 -19.7741 -9.89067
1 -13.9939 -19.7741 9.89067
1 -13.9935 19.7741 -9.89066
1 -13.9935 19.7741 9.89067
1 -19.774 -9.89066 -13.9939
1 -19.774 -9.89066 13.9939
1 -19.7738 9.89068 -13.994
1 -19.7738 9.89068 13.994
1 19.7743 -9.89068 -13.994
1 19.7743 -9.89068 13.994
1 19.7745 9.89066 -13.9939
1 19.7745 9.89066 13.9939
1 13.994 -19.7741 -9.89067
1 13.994 -19.7741 9.89067
1 13.9944 19.7741 -9.89067
1 13.9944 19.7741 9.89067
1 9.8908 -13.9939 -19.7741
1 9.8908 -13.9939 19.7741
1 9.89108 13.9939 -19.7741
1 -9.89053 -13.9939 -19.7741
1 -13.0326 -10.3538 20.3979
1 -13.0324 10.3538 -20.3979
1 -13.0324 10.3538 20.3979
1 -10.3538 -20.3979 -13.0328
1 -10.3538 -20.3979 13.0328
1 -10.3534 20.3979 -13.0328
1 -10.3534 20.3979 13.0328
1 -20.3978 -13.0328 -10.3539
1 -20.3978 -13.0328 10.3539
1 -20.3975 13.0328 -10.3538
1 -20.3975 13.0328 10.3538
1 20.398 -13.0328 -10.3538
1 20.3981 -13.0328 10.3538
1 20.3983 13.0328 -10.3539
1 20.3983 13.0328 10.3539
1 10.3539 -20.3979 -13.0328
1 10.3539 -20.3979 13.0328
1 10.3543 20.3979 -13.0328
1 10.3543 20.3979 13.0328
1 13.0329 -10.3538 -20.3979
1 13.0329 -10.3538 20.3979
1 13.0331 10.3538 -20.3979
1 -13.0326 -10.3538 -20.3979
1 -14.3132 -14.575 17.5548
1 -14.3128 14.575 -17.5547
1 -14.3128 14.575 17.5547
1 -14.5749 -17.5547 -14.3133
1 -14.5749 -17.5547 14.3133
1 -14.5746 17.5548 -14.3133
1 -14.5746 17.5548 14.3133
1 -17.5546 -14.3133 -14.575
1 -17.5546 -14.3133 14.575
1 -17.5543 14.3133 -14.575
1 -17.5543 14.3133 14.575
1 17.5549 -14.3133 -14.575
1 17.5549 -14.3133 14.575
1 17.5552 14.3133 -14.575
1 17.5552 14.3133 14.575
1 14.5751 -17.5548 -14.3133
1 14.5751 -17.5548 14.3133
1 14.5754 17.5547 -14.3133
1 14.5754 17.5547 14.3133
1 14.3134 -14.575 -17.5547
1 14.3134 -14.575 17.5547
1 14.3137 14.575 -17.5548
1 -14.3131 -14.575 -17.5548
1 -12.8959 -1.32676 25.0707
1 -12.8959 1.32677 -25.0707
1 -12.8959 1.32677 25.0707
1 -1.32673 -25.0707 -12.8962
1 -1.32674 -25.0707 12.8962
1 -1.32624 25.0707 -12.8962
1 -1.32624 25.0707 12.8962
1 -25.0706 -12.8962 -1.32676
1 -25.0706 -12.8962 1.32676
1 -25.0703 12.8962 -1.32677
1 -25.0703 12.8962 1.32677
1 25.0708 -12.8962 -1.32676
1 25.0708 -12.8962 1.32677
1 25.0711 12.8962 -1.32676
1 25.0711 12.8962 1.32676
1 1.32679 -25.0707 -12.8962
1 1.32679 -25.0707 12.8962
1 1.32729 25.0707 -12.8962
1 1.32729 25.0707 12.8962
1 12.8965 -1.32677 -25.0707
1 12.8965 -1.32677 25.0707
1 12.8965 1.32676 -25.0707
1 -12.8959 -1.32676 -25.0707
1 -16.8159 -1.38367 22.1853
1 -16.8159 1.38371 -22.1853
1 -16.8159 1.38371 22.1853
1 -1.38362 -22.1853 -16.8162
1 -1.38362 -22.1853 16.8162
1 -1.38321 22.1853 -16.8162
1 -1.38321 22.1853 16.8162
1 -22.1852 -16.8162 -1.38369
1 -22.1852 -16.8162 1.3837
1 -22.1849 16.8162 -1.38369
1 -22.1849 16.8162 1.38369
1 22.1854 -16.8162 -1.38369
1 22.1854 -16.8162 1.38369
1 22.1858 16.8162 -1.38369
1 22.1858 16.8162 1.38369
1 1.38376 -22.1853 -16.8162
1 1.38376 -22.1853 16.8162
1 1.38418 22.1853 -16.8162
1 1.38417 22.1853 16.8162
1 16.8165 -1.38371 -22.1853
1 16.8165 -1.38371 22.1853
1 16.8165 1.38367 -22.1853
1 -16.8159 -1.38368 -22.1853
1 -13.5303 -4.72063 21.7632
1 -13.5302 4.72064 -21.7632
1 -13.5302 4.72064 21.7632
1 -4.72057 -21.7632 -13.5305
1 -4.72057 -21.7632 13.5305
1 -4.72014 21.7632 -13.5305
1 -4.72015 21.7632 13.5305
1 -21.7631 -13.5305 -4.72063
1 -21.7631 -13.5305 4.72063
1 -21.7628 13.5305 -4.72064
1 -21.7628 13.5305 4.72064
1 21.7634 -13.5305 -4.72064
1 21.7634 -13.5305 4.72064
1 21.7636 13.5305 -4.72063
1 21.7636 13.5305 4.72063
1 4.7207 -21.7632 -13.5305
1 4.7207 -21.7632 13.5305
1 4.72112 21.7632 -13.5305
1 4.72112 21.7632 13.5305
1 13.5307 -4.72064 -21.7632
1 13.5307 -4.72064 21.7632
1 13.5308 4.72063 -21.7632
1 -13.5303 -4.72063 -21.7632
1 -20.667 -1.39918 19.3132
1 -20.6669 1.39921 -19.3132
1 -20.6669 1.39921 19.3132
1 -1.39909 -19.3132 -20.6672
1 -1.39909 -19.3132 20.6672
1 -1.39875 19.3132 -20.6672
1 -1.39875 19.3132 20.6672
1 -19.3131 -20.6672 -1.3992
1 -19.3131 -20.6672 1.3992
1 -19.3127 20.6672 -1.39919
1 -19.3127 20.6672 1.39919
1 19.3133 -20.6672 -1.39919
1 19.3133 -20.6672 1.39919
1 19.3137 20.6672 -1.3992
1 19.3137 20.6672 1.3992
1 1.3993 -19.3132 -20.6672
1 1.3993 -19.3132 20.6672
1 1.39964 19.3132 -20.6672
1 1.39964 19.3132 20.6672
1 20.6675 -1.39921 -19.3132
1 20.6675 -1.39921 19.3132
1 20.6675 1.39918 -19.3132
1 -20.667 -1.39918 -19.3132
1 -24.7065 -1.36438 16.6234
1 -24.7065 1.36441 -16.6234
1 -24.7065 1.36441 16.6234
1 -1.36427 -16.6235 -24.7068
1 -1.36427 -16.6235 24.7068
1 -1.36397 16.6234 -24.7068
1 -1.36397 16.6234 24.7068
1 -16.6234 -24.7068 -1.36439
1 -16.6234 -24.7068 1.3644
1 -16.6229 24.7068 -1.3644
1 -16.6229 24.7068 1.3644
1 16.6235 -24.7068 -1.3644
1 16.6235 -24.7068 1.3644
1 16.624 24.7068 -1.3644
1 16.624 24.7068 1.3644
1 1.36452 -16.6234 -24.7068
1 1.36452 -16.6234 24.7068
1 1.36482 16.6235 -24.7068
1 1.36482 16.6235 24.7068
1 24.707 -1.36441 -16.6234
1 24.707 -1.36441 16.6234
1 24.7071 1.36438 -16.6234
1 -24.7065 -1.36438 -16.6234
1 -21.5514 -5.1619 16.4905
1 -21.5513 5.16193 -16.4905
1 -21.5513 5.16193 16.4905
1 -5.1618 -16.4905 -21.5516
1 -5.1618 -16.4905 21.5516
1 -5.16148 16.4904 -21.5516
1 -5.16148 16.4904 21.5516
1 -16.4904 -21.5516 -5.16192
1 -16.4904 -21.5516 5.16192
1 -16.49 21.5516 -5.16191
1 -16.49 21.5516 5.16191
1 16.4905 -21.5516 -5.16191
1 16.4905 -21.5516 5.16191
1 16.491 21.5516 -5.16192
1 16.491 21.5516 5.16192
1 5.16203 -16.4904 -21.5516
1 5.16203 -16.4904 21.5516
1 5.16235 16.4905 -21.5516
1 5.16235 16.4905 21.5516
1 21.5518 -5.16193 -16.4905
1 21.5518 -5.16193 16.4905
1 21.5519 5.1619 -16.4905
1 -21.5514 -5.1619 -16.4905
1 -15.0104 -9.26758 19.6849
1 -15.0102 9.26759 -19.6849
1 -15.0102 9.26759 19.6849
1 -9.2675 -19.6849 -15.0106
1 -9.2675 -19.6849 15.0106
1 -9.26711 19.6849 -15.0106
1 -9.26711 19.6849 15.0106
1 -19.6848 -15.0106 -9.2676
1 -19.6848 -15.0106 9.2676
1 -19.6845 15.0106 -9.26757
1 -19.6845 15.0106 9.26757
1 19.685 -15.0106 -9.26757
1 19.685 -15.0106 9.26757
1 19.6854 15.0106 -9.2676
1 19.6854 15.0106 9.2676
1 9.26766 -19.6849 -15.0106
1 9.26767 -19.6849 15.0106
1 9.26805 19.6849 -15.0106
1 9.26805 19.6849 15.0106
1 15.0107 -9.26759 -19.6849
1 15.0107 -9.26759 19.6849
1 15.0109 9.26758 -19.6849
1 -15.0104 -9.26758 -19.6849
1 -18.538 -9.0143 16.3723
1 -18.5378 9.01432 -16.3723
1 -18.5378 9.01432 16.3723
1 -9.0142 -16.3723 -18.5382
1 -9.0142 -16.3723 18.5382
1 -9.01387 16.3723 -18.5382
1 -9.01387 16.3723 18.5382
1 -16.3722 -18.5382 -9.01432
1 -16.3722 -18.5382 9.01432
1 -16.3719 18.5382 -9.0143
1 -16.3719 18.5382 9.0143
1 16.3724 -18.5382 -9.0143
1 16.3724 -18.5382 9.0143
1 16.3728 18.5382 -9.01432
1 16.3728 18.5382 9.01432
1 9.01442 -16.3723 -18.5382
1 9.01442 -16.3723 18.5382
1 9.01475 16.3723 -18.5382
1 9.01475 16.3723 18.5382
1 18.5384 -9.01432 -16.3723
1 18.5384 -9.01432 16.3723
1 18.5385 9.0143 -16.3723
1 -18.538 -9.0143 -16.3723
1 -16.2777 -13.4246 16.7601
1 -16.2774 13.4246 -16.7601
1 -16.2774 13.4246 16.7601
1 -13.4245 -16.7601 -16.2778
1 -13.4245 -16.7601 16.2778
1 -13.4241 16.7601 -16.2778
1 -13.4241 16.7601 16.2778
1 -16.76 -16.2779 -13.4246
1 -16.76 -16.2779 13.4246
1 -16.7596 16.2778 -13.4246
1 -16.7596 16.2778 13.4246
1 16.7602 -16.2778 -13.4246
1 16.7602 -16.2778 13.4246
1 16.7605 16.2779 -13.4246
1 16.7605 16.2779 13.4246
1 13.4247 -16.7601 -16.2778
1 13.4247 -16.7601 16.2778
1 13.425 16.7601 -16.2778
1 13.425 16.7601 16.2778
1 16.278 -13.4246 -16.7601
1 16.278 -13.4246 16.7601
1 16.2783 13.4246 -16.7601
1 -16.2777 -13.4246 -16.7601
1 -7.68754 -10.8922 23.145
1 -7.68732 10.8922 -23.145
1 -7.68732 10.8922 23.145
1 -10.8922 -23.145 -7.68769
1 -10.8922 -23.145 7.68769
1 -10.8917 23.145 -7.68772
1 -10.8917 23.145 7.68772
1 -23.1448 -7.68769 -10.8922
1 -23.1448 -7.68769 10.8922
1 -23.1446 7.68772 -10.8922
1 -23.1446 7.68772 10.8922
1 23.1452 -7.68772 -10.8922
1 23.1452 -7.68772 10.8922
1 23.1454 7.68769 -10.8922
1 23.1454 7.68769 10.8922
1 10.8923 -23.145 -7.68772
1 10.8923 -23.145 7.68772
1 10.8927 23.145 -7.68769
1 10.8927 23.145 7.68769
1 7.68787 -10.8922 -23.145
1 7.68787 -10.8922 23.145
1 7.68809 10.8922 -23.145
1 -7.68754 -10.8922 -23.145
1 -8.98831 -8.86534 23.099
1 -8.98812 8.86532 -23.099
1 -8.98812 8.86532 23.099
1 -8.86528 -23.099 -8.98848
1 -8.86528 -23.099 8.98848
1 -8.86483 23.099 -8.9885
1 -8.86483 23.099 8.9885
1 -23.0988 -8.98848 -8.86532
1 -23.0988 -8.98848 8.86532
1 -23.0986 8.9885 -8.86534
1 -23.0986 8.9885 8.86534
1 23.0991 -8.9885 -8.86534
1 23.0991 -8.9885 8.86534
1 23.0993 8.98848 -8.86532
1 23.0993 8.98848 8.86532
1 8.86538 -23.099 -8.9885
1 8.86538 -23.099 8.9885
1 8.86583 23.099 -8.98848
1 8.86583 23.099 8.98848
1 8.98867 -8.86532 -23.099
1 8.98867 -8.86532 23.099
1 8.98886 8.86534 -23.099
1 -8.98831 -8.86534 -23.099
1 -9.58555 -10.7334 21.6373
1 -9.58533 10.7333 -21.6373
1 -9.58533 10.7333 21.6373
1 -10.7333 -21.6373 -9.58571
1 -10.7333 -21.6373 9.58571
1 -10.7329 21.6373 -9.58572
1 -10.7329 21.6373 9.58572
1 -21.6371 -9.5857 -10.7333
1 -21.6371 -9.5857 10.7333
1 -21.6369 9.58573 -10.7334
1 -21.6369 9.58573 10.7334
1 21.6375 -9.58573 -10.7334
1 21.6375 -9.58573 10.7334
1 21.6376 9.5857 -10.7333
1 21.6376 9.5857 10.7333
1 10.7334 -21.6373 -9.58572
1 10.7334 -21.6373 9.58572
1 10.7338 21.6373 -9.58571
1 10.7338 21.6373 9.58571
1 9.58588 -10.7333 -21.6373
1 9.58587 -10.7333 21.6373
1 9.5861 10.7334 -21.6373
1 -9.58555 -10.7334 -21.6373
1 -16.9048 -4.59945 20.3218
1 -16.9047 4.59947 -20.3218
1 -16.9047 4.59947 20.3218
1 -4.59938 -20.3218 -16.905
1 -4.59938 -20.3218 16.905
1 -4.59899 20.3218 -16.905
1 -4.59899 20.3218 16.905
1 -20.3217 -16.905 -4.59946
1 -20.3217 -16.905 4.59946
1 -20.3214 16.905 -4.59946
1 -20.3214 16.905 4.59946
1 20.3219 -16.905 -4.59946
1 20.3219 -16.905 4.59946
1 20.3223 16.905 -4.59947
1 20.3223 16.905 4.59946
1 4.59954 -20.3218 -16.905
1 4.59954 -20.3218 16.905
1 4.59993 20.3218 -16.905
1 4.59993 20.3218 16.905
1 16.9052 -4.59947 -20.3218
1 16.9052 -4.59947 20.3218
1 16.9053 4.59945 -20.3218
1 -16.9048 -4.59945 -20.3218
1 -18.9167 -4.66518 19.0021
1 -18.9166 4.6652 -19.002
1 -18.9166 4.6652 19.002
1 -4.66509 -19.0021 -18.9169
1 -4.66509 -19.0021 18.9169
1 -4.66473 19.002 -18.9169
1 -4.66473 19.002 18.9169
1 -19.002 -18.9169 -4.66519
1 -19.002 -18.9169 4.66519
1 -19.0016 18.9169 -4.66518
1 -19.0016 18.9169 4.66518
1 19.0021 -18.9169 -4.66518
1 19.0021 -18.9169 4.66518
1 19.0025 18.9169 -4.66519
1 19.0025 18.9169 4.66519
1 4.66528 -19.002 -18.9169
1 4.66529 -19.002 18.9169
1 4.66564 19.0021 -18.9169
1 4.66564 19.0021 18.9169
1 18.9171 -4.6652 -19.002
1 18.9171 -4.6652 19.002
1 18.9172 4.66518 -19.0021
1 -18.9167 -4.66518 -19.0021
1 -17.327 -6.51897 18.897
1 -17.3268 6.519 -18.897
1 -17.3268 6.519 18.897
1 -6.51889 -18.897 -17.3272
1 -6.51889 -18.897 17.3272
1 -6.51852 18.897 -17.3272
1 -6.51852 18.897 17.3272
1 -18.8969 -17.3272 -6.51899
1 -18.8969 -17.3272 6.51899
1 -18.8965 17.3272 -6.51897
1 -18.8965 17.3272 6.51897
1 18.8971 -17.3272 -6.51898
1 18.8971 -17.3272 6.51897
1 18.8975 17.3272 -6.51899
1 18.8975 17.3272 6.51899
1 6.51907 -18.897 -17.3272
1 6.51908 -18.897 17.3272
1 6.51944 18.897 -17.3272
1 6.51944 18.897 17.3272
1 17.3274 -6.519 -18.897
1 17.3274 -6.519 18.897
1 17.3275 6.51897 -18.897
1 -17.327 -6.51897 -18.897
1 -5.62221 -12.3932 24.3081
1 -5.62197 12.3932 -24.3081
1 -5.62197 12.3932 24.3081
1 -12.3932 -24.3081 -5.62235
1 -12.3932 -24.3081 5.62235
1 -12.3927 24.3081 -5.62238
1 -12.3927 24.3081 5.62238
1 -24.3079 -5.62236 -12.3932
1 -24.3079 -5.62236 12.3932
1 -24.3078 5.62237 -12.3932
1 -24.3078 5.62238 12.3932
1 24.3083 -5.62237 -12.3932
1 24.3083 -5.62237 12.3932
1 24.3085 5.62235 -12.3932
1 24.3085 5.62236 12.3932
1 12.3932 -24.3081 -5.62238
1 12.3932 -24.3081 5.62238
1 12.3937 24.3081 -5.62235
1 12.3937 24.3081 5.62235
1 5.62252 -12.3932 -24.3081
1 5.62252 -12.3932 24.3081
1 5.62276 12.3932 -24.3081
1 -5.62221 -12.3932 -24.3081
1 -4.20901 -14.3483 24.369
1 -4.20873 14.3482 -24.369
1 -4.20873 14.3482 24.369
1 -14.3482 -24.369 -4.20913
1 -14.3482 -24.369 4.20914
1 -14.3477 24.369 -4.20915
1 -14.3477 24.369 4.20915
1 -24.3688 -4.20913 -14.3482
1 -24.3688 -4.20913 14.3482
1 -24.3687 4.20916 -14.3483
1 -24.3687 4.20916 14.3482
1 24.3692 -4.20916 -14.3482
1 24.3692 -4.20916 14.3483
1 24.3693 4.20913 -14.3482
1 24.3693 4.20913 14.3482
1 14.3483 -24.369 -4.20915
1 14.3483 -24.369 4.20915
1 14.3488 24.369 -4.20914
1 14.3488 24.369 4.20914
1 4.20928 -14.3482 -24.369
1 4.20928 -14.3482 24.369
1 4.20956 14.3483 -24.369
1 -4.20901 -14.3483 -24.369
1 -4.14759 -12.8096 26.191
1 -4.14734 12.8096 -26.191
1 -4.14734 12.8096 26.191
1 -12.8096 -26.191 -4.14773
1 -12.8096 -26.191 4.14773
1 -12.8091 26.191 -4.14775
1 -12.8091 26.191 4.14775
1 -26.1908 -4.14774 -12.8096
1 -26.1908 -4.14774 12.8096
1 -26.1907 4.14775 -12.8096
1 -26.1907 4.14775 12.8096
1 26.1912 -4.14775 -12.8096
1 26.1912 -4.14775 12.8096
1 26.1913 4.14774 -12.8096
1 26.1913 4.14774 12.8096
1 12.8096 -26.191 -4.14775
1 12.8096 -26.191 4.14775
1 12.8102 26.191 -4.14774
1 12.8102 26.191 4.14773
1 4.1479 -12.8096 -26.191
1 4.1479 -12.8096 26.191
1 4.14814 12.8096 -26.191
1 -4.14759 -12.8096 -26.191
1 -10.8796 -4.30157 24.2905
1 -10.8795 4.30158 -24.2905
1 -10.8795 4.30158 24.2905
1 -4.30154 -24.2905 -10.8798
1 -4.30154 -24.2905 10.8798
1 -4.30106 24.2905 -10.8799
1 -4.30105 24.2905 10.8799
1 -24.2903 -10.8798 -4.30156
1 -24.2903 -10.8798 4.30156
1 -24.2901 10.8799 -4.30159
1 -24.2901 10.8799 4.30159
1 24.2906 -10.8799 -4.30159
1 24.2906 -10.8799 4.30159
1 24.2909 10.8798 -4.30156
1 24.2909 10.8798 4.30156
1 4.30161 -24.2905 -10.8799
1 4.30161 -24.2905 10.8799
1 4.30209 24.2905 -10.8798
1 4.30209 24.2905 10.8798
1 10.8801 -4.30158 -24.2905
1 10.8801 -4.30158 24.2905
1 10.8802 4.30157 -24.2905
1 -10.8796 -4.30157 -24.2905
1 -9.52176 -6.31472 24.2236
1 -9.52163 6.31472 -24.2236
1 -9.52163 6.31472 24.2236
1 -6.31469 -24.2236 -9.52195
1 -6.31469 -24.2236 9.52196
1 -6.31421 24.2236 -9.52198
1 -6.31421 24.2236 9.52197
1 -24.2234 -9.52195 -6.31471
1 -24.2234 -9.52196 6.31471
1 -24.2232 9.52197 -6.31473
1 -24.2232 9.52198 6.31473
1 24.2237 -9.52198 -6.31473
1 24.2237 -9.52198 6.31474
1 24.224 9.52196 -6.31471
1 24.224 9.52195 6.31471
1 6.31476 -24.2236 -9.52197
1 6.31476 -24.2236 9.52198
1 6.31524 24.2236 -9.52196
1 6.31524 24.2236 9.52195
1 9.52218 -6.31472 -24.2236
1 9.52218 -6.31472 24.2236
1 9.5223 6.31472 -24.2236
1 -9.52176 -6.31472 -24.2236
1 -9.4929 -4.82928 26.1702