LAMMPS data file. CGCMM style. atom_style atomic generated by VMD/TopoTools v1.6 on Tue May 03 11:28:13 EDT 2016
 672 atoms
 0 bonds
 0 angles
 0 dihedrals
 0 impropers
 1 atom types
 0 bond types
 0 angle types
 0 dihedral types
 0 improper types
 0.012000 21.971000  xlo xhi
 -0.078999 21.880001  ylo yhi
 0.152000 22.111000  zlo zhi

# Pair Coeffs
#
# 1  C

 Masses

 1 12.010700 # C

 Atoms

1 1 2.489000 0.062000 5.376000 # C
2 1 21.726999 0.589000 5.064000 # C
3 1 0.633000 1.577000 5.547000 # C
4 1 19.813000 1.717000 3.856000 # C
5 1 20.523001 2.926000 3.534000 # C
6 1 20.341000 0.761000 4.787000 # C
7 1 17.754999 0.339000 3.731000 # C
8 1 2.489000 11.041000 16.355000 # C
9 1 21.726999 11.569000 16.044001 # C
10 1 0.633000 12.556000 16.525999 # C
11 1 19.813000 12.697000 14.835000 # C
12 1 20.523001 13.906000 14.513000 # C
13 1 20.341000 11.740000 15.767000 # C
14 1 17.754999 11.318000 14.710000 # C
15 1 13.469000 0.062000 16.355000 # C
16 1 10.747000 0.589000 16.044001 # C
17 1 11.613000 1.577000 16.525999 # C
18 1 8.833000 1.717000 14.835000 # C
19 1 9.544000 2.926000 14.513000 # C
20 1 9.362000 0.761000 15.767000 # C
21 1 6.776000 0.339000 14.710000 # C
22 1 13.469000 11.041000 5.376000 # C
23 1 10.747000 11.569000 5.064000 # C
24 1 11.613000 12.556000 5.547000 # C
25 1 8.833000 12.697000 3.856000 # C
26 1 9.544000 13.906000 3.534000 # C
27 1 9.362000 11.740000 4.787000 # C
28 1 6.776000 11.318000 3.731000 # C
29 1 19.493999 21.739000 5.376000 # C
30 1 0.256000 21.212000 5.064000 # C
31 1 21.349001 20.224001 5.547000 # C
32 1 2.170000 20.084000 3.856000 # C
33 1 1.459000 18.874001 3.534000 # C
34 1 1.641000 21.040001 4.787000 # C
35 1 4.227000 21.462000 3.731000 # C
36 1 19.493999 10.760000 16.355000 # C
37 1 0.256000 10.232000 16.044001 # C
38 1 21.349001 9.245000 16.525999 # C
39 1 2.170000 9.104000 14.835000 # C
40 1 1.459000 7.895000 14.513000 # C
41 1 1.641000 10.060000 15.767000 # C
42 1 4.227000 10.483000 14.710000 # C
43 1 8.514000 21.739000 16.355000 # C
44 1 11.235000 21.212000 16.044001 # C
45 1 10.370000 20.224001 16.525999 # C
46 1 13.149000 20.084000 14.835000 # C
47 1 12.439000 18.874001 14.513000 # C
48 1 12.621000 21.040001 15.767000 # C
49 1 15.207000 21.462000 14.710000 # C
50 1 8.514000 10.760000 5.376000 # C
51 1 11.235000 10.232000 5.064000 # C
52 1 10.370000 9.245000 5.547000 # C
53 1 13.149000 9.104000 3.856000 # C
54 1 12.439000 7.895000 3.534000 # C
55 1 12.621000 10.060000 4.787000 # C
56 1 15.207000 10.483000 3.731000 # C
57 1 19.493999 0.062000 16.886999 # C
58 1 0.256000 0.589000 17.198000 # C
59 1 21.349001 1.577000 16.716000 # C
60 1 2.170000 1.717000 18.407000 # C
61 1 1.459000 2.926000 18.729000 # C
62 1 1.641000 0.761000 17.475000 # C
63 1 4.227000 0.339000 18.532000 # C
64 1 19.493999 11.041000 5.907000 # C
65 1 0.256000 11.569000 6.219000 # C
66 1 21.349001 12.556000 5.736000 # C
67 1 2.170000 12.697000 7.427000 # C
68 1 1.459000 13.906000 7.749000 # C
69 1 1.641000 11.740000 6.496000 # C
70 1 4.227000 11.318000 7.552000 # C
71 1 8.514000 0.062000 5.907000 # C
72 1 11.235000 0.589000 6.219000 # C
73 1 10.370000 1.577000 5.736000 # C
74 1 13.149000 1.717000 7.427000 # C
75 1 12.439000 2.926000 7.749000 # C
76 1 12.621000 0.761000 6.496000 # C
77 1 15.207000 0.339000 7.552000 # C
78 1 8.514000 11.041000 16.886999 # C
79 1 11.235000 11.569000 17.198000 # C
80 1 10.370000 12.556000 16.716000 # C
81 1 13.149000 12.697000 18.407000 # C
82 1 12.439000 13.906000 18.729000 # C
83 1 12.621000 11.740000 17.475000 # C
84 1 15.207000 11.318000 18.532000 # C
85 1 2.489000 21.739000 16.886999 # C
86 1 21.726999 21.212000 17.198000 # C
87 1 0.633000 20.224001 16.716000 # C
88 1 19.813000 20.084000 18.407000 # C
89 1 20.523001 18.874001 18.729000 # C
90 1 20.341000 21.040001 17.475000 # C
91 1 17.754999 21.462000 18.532000 # C
92 1 2.489000 10.760000 5.907000 # C
93 1 21.726999 10.232000 6.219000 # C
94 1 0.633000 9.245000 5.736000 # C
95 1 19.813000 9.104000 7.427000 # C
96 1 20.523001 7.895000 7.749000 # C
97 1 20.341000 10.060000 6.496000 # C
98 1 17.754999 10.483000 7.552000 # C
99 1 13.469000 21.739000 5.907000 # C
100 1 10.747000 21.212000 6.219000 # C
101 1 11.613000 20.224001 5.736000 # C
102 1 8.833000 20.084000 7.427000 # C
103 1 9.544000 18.874001 7.749000 # C
104 1 9.362000 21.040001 6.496000 # C
105 1 6.776000 21.462000 7.552000 # C
106 1 13.469000 10.760000 16.886999 # C
107 1 10.747000 10.232000 17.198000 # C
108 1 11.613000 9.245000 16.716000 # C
109 1 8.833000 9.104000 18.407000 # C
110 1 9.544000 7.895000 18.729000 # C
111 1 9.362000 10.060000 17.475000 # C
112 1 6.776000 10.483000 18.532000 # C
113 1 5.236000 2.398000 0.293000 # C
114 1 4.924000 21.636000 0.820000 # C
115 1 5.407000 0.542000 1.807000 # C
116 1 3.716000 19.722000 1.948000 # C
117 1 3.394000 20.431999 3.157000 # C
118 1 4.647000 20.250000 0.992000 # C
119 1 3.591000 17.664000 0.570000 # C
120 1 5.236000 13.378000 11.272000 # C
121 1 4.924000 10.657000 11.800000 # C
122 1 5.407000 11.522000 12.787000 # C
123 1 3.716000 8.743000 12.928000 # C
124 1 3.394000 9.453000 14.137000 # C
125 1 4.647000 9.271000 11.971000 # C
126 1 3.591000 6.685000 11.549000 # C
127 1 16.215000 2.398000 11.272000 # C
128 1 15.904000 21.636000 11.800000 # C
129 1 16.386000 0.542000 12.787000 # C
130 1 14.695000 19.722000 12.928000 # C
131 1 14.374000 20.431999 14.137000 # C
132 1 15.627000 20.250000 11.971000 # C
133 1 14.570000 17.664000 11.549000 # C
134 1 16.215000 13.378000 0.293000 # C
135 1 15.904000 10.657000 0.820000 # C
136 1 16.386000 11.522000 1.807000 # C
137 1 14.695000 8.743000 1.948000 # C
138 1 14.374000 9.453000 3.157000 # C
139 1 15.627000 9.271000 0.992000 # C
140 1 14.570000 6.685000 0.570000 # C
141 1 5.236000 19.403000 21.969999 # C
142 1 4.924000 0.165000 21.443001 # C
143 1 5.407000 21.259001 20.455000 # C
144 1 3.716000 2.079000 20.315001 # C
145 1 3.394000 1.369000 19.105000 # C
146 1 4.647000 1.551000 21.271000 # C
147 1 3.591000 4.137000 21.693001 # C
148 1 5.236000 8.423000 10.990000 # C
149 1 4.924000 11.144000 10.463000 # C
150 1 5.407000 10.279000 9.476000 # C
151 1 3.716000 13.058000 9.335000 # C
152 1 3.394000 12.348000 8.126000 # C
153 1 4.647000 12.530000 10.291000 # C
154 1 3.591000 15.116000 10.713000 # C
155 1 16.215000 19.403000 10.990000 # C
156 1 15.904000 0.165000 10.463000 # C
157 1 16.386000 21.259001 9.476000 # C
158 1 14.695000 2.079000 9.335000 # C
159 1 14.374000 1.369000 8.126000 # C
160 1 15.627000 1.551000 10.291000 # C
161 1 14.570000 4.137000 10.713000 # C
162 1 16.215000 8.423000 21.969999 # C
163 1 15.904000 11.144000 21.443001 # C
164 1 16.386000 10.279000 20.455000 # C
165 1 14.695000 13.058000 20.315001 # C
166 1 14.374000 12.348000 19.105000 # C
167 1 15.627000 12.530000 21.271000 # C
168 1 14.570000 15.116000 21.693001 # C
169 1 16.747000 19.403000 0.293000 # C
170 1 17.058001 0.165000 0.820000 # C
171 1 16.576000 21.259001 1.807000 # C
172 1 18.267000 2.079000 1.948000 # C
173 1 18.589001 1.369000 3.157000 # C
174 1 17.334999 1.551000 0.992000 # C
175 1 18.392000 4.137000 0.570000 # C
176 1 16.747000 8.423000 11.272000 # C
177 1 17.058001 11.144000 11.800000 # C
178 1 16.576000 10.279000 12.787000 # C
179 1 18.267000 13.058000 12.928000 # C
180 1 18.589001 12.348000 14.137000 # C
181 1 17.334999 12.530000 11.971000 # C
182 1 18.392000 15.116000 11.549000 # C
183 1 5.767000 19.403000 11.272000 # C
184 1 6.079000 0.165000 11.800000 # C
185 1 5.596000 21.259001 12.787000 # C
186 1 7.287000 2.079000 12.928000 # C
187 1 7.609000 1.369000 14.137000 # C
188 1 6.356000 1.551000 11.971000 # C
189 1 7.412000 4.137000 11.549000 # C
190 1 5.767000 8.423000 0.293000 # C
191 1 6.079000 11.144000 0.820000 # C
192 1 5.596000 10.279000 1.807000 # C
193 1 7.287000 13.058000 1.948000 # C
194 1 7.609000 12.348000 3.157000 # C
195 1 6.356000 12.530000 0.992000 # C
196 1 7.412000 15.116000 0.570000 # C
197 1 16.747000 2.398000 21.969999 # C
198 1 17.058001 21.636000 21.443001 # C
199 1 16.576000 0.542000 20.455000 # C
200 1 18.267000 19.722000 20.315001 # C
201 1 18.589001 20.431999 19.105000 # C
202 1 17.334999 20.250000 21.271000 # C
203 1 18.392000 17.664000 21.693001 # C
204 1 16.747000 13.378000 10.990000 # C
205 1 17.058001 10.657000 10.463000 # C
206 1 16.576000 11.522000 9.476000 # C
207 1 18.267000 8.743000 9.335000 # C
208 1 18.589001 9.453000 8.126000 # C
209 1 17.334999 9.271000 10.291000 # C
210 1 18.392000 6.685000 10.713000 # C
211 1 5.767000 2.398000 10.990000 # C
212 1 6.079000 21.636000 10.463000 # C
213 1 5.596000 0.542000 9.476000 # C
214 1 7.287000 19.722000 9.335000 # C
215 1 7.609000 20.431999 8.126000 # C
216 1 6.356000 20.250000 10.291000 # C
217 1 7.412000 17.664000 10.713000 # C
218 1 5.767000 13.378000 21.969999 # C
219 1 6.079000 10.657000 21.443001 # C
220 1 5.596000 11.522000 20.455000 # C
221 1 7.287000 8.743000 20.315001 # C
222 1 7.609000 9.453000 19.105000 # C
223 1 6.356000 9.271000 21.271000 # C
224 1 7.412000 6.685000 21.693001 # C
225 1 0.153000 5.145000 2.629000 # C
226 1 0.680000 4.833000 21.867001 # C
227 1 1.667000 5.316000 0.773000 # C
228 1 1.808000 3.625000 19.952999 # C
229 1 3.017000 3.303000 20.663000 # C
230 1 0.852000 4.557000 20.481001 # C
231 1 0.430000 3.500000 17.895000 # C
232 1 0.153000 16.124001 13.609000 # C
233 1 0.680000 15.813000 10.887000 # C
234 1 1.667000 16.295000 11.753000 # C
235 1 1.808000 14.604000 8.973000 # C
236 1 3.017000 14.283000 9.684000 # C
237 1 0.852000 15.536000 9.502000 # C
238 1 0.430000 14.479000 6.916000 # C
239 1 11.132000 5.145000 13.609000 # C
240 1 11.660000 4.833000 10.887000 # C
241 1 12.647000 5.316000 11.753000 # C
242 1 12.788000 3.625000 8.973000 # C
243 1 13.997000 3.303000 9.684000 # C
244 1 11.831000 4.557000 9.502000 # C
245 1 11.409000 3.500000 6.916000 # C
246 1 11.132000 16.124001 2.629000 # C
247 1 11.660000 15.813000 21.867001 # C
248 1 12.647000 16.295000 0.773000 # C
249 1 12.788000 14.604000 19.952999 # C
250 1 13.997000 14.283000 20.663000 # C
251 1 11.831000 15.536000 20.481001 # C
252 1 11.409000 14.479000 17.895000 # C
253 1 21.830000 5.145000 19.632999 # C
254 1 21.302999 4.833000 0.396000 # C
255 1 20.315001 5.316000 21.489000 # C
256 1 20.174999 3.625000 2.310000 # C
257 1 18.965000 3.303000 1.599000 # C
258 1 21.131001 4.557000 1.781000 # C
259 1 21.552999 3.500000 4.367000 # C
260 1 21.830000 16.124001 8.654000 # C
261 1 21.302999 15.813000 11.375000 # C
262 1 20.315001 16.295000 10.510000 # C
263 1 20.174999 14.604000 13.289000 # C
264 1 18.965000 14.283000 12.579000 # C
265 1 21.131001 15.536000 12.761000 # C
266 1 21.552999 14.479000 15.347000 # C
267 1 10.850000 5.145000 8.654000 # C
268 1 10.323000 4.833000 11.375000 # C
269 1 9.336000 5.316000 10.510000 # C
270 1 9.195000 3.625000 13.289000 # C
271 1 7.986000 3.303000 12.579000 # C
272 1 10.151000 4.557000 12.761000 # C
273 1 10.573000 3.500000 15.347000 # C
274 1 10.850000 16.124001 19.632999 # C
275 1 10.323000 15.813000 0.396000 # C
276 1 9.336000 16.295000 21.489000 # C
277 1 9.195000 14.604000 2.310000 # C
278 1 7.986000 14.283000 1.599000 # C
279 1 10.151000 15.536000 1.781000 # C
280 1 10.573000 14.479000 4.367000 # C
281 1 0.153000 16.656000 19.632999 # C
282 1 0.680000 16.968000 0.396000 # C
283 1 1.667000 16.485001 21.489000 # C
284 1 1.808000 18.176001 2.310000 # C
285 1 3.017000 18.497999 1.599000 # C
286 1 0.852000 17.243999 1.781000 # C
287 1 0.430000 18.301001 4.367000 # C
288 1 0.153000 5.677000 8.654000 # C
289 1 0.680000 5.988000 11.375000 # C
290 1 1.667000 5.506000 10.510000 # C
291 1 1.808000 7.196000 13.289000 # C
292 1 3.017000 7.518000 12.579000 # C
293 1 0.852000 6.265000 12.761000 # C
294 1 0.430000 7.322000 15.347000 # C
295 1 11.132000 16.656000 8.654000 # C
296 1 11.660000 16.968000 11.375000 # C
297 1 12.647000 16.485001 10.510000 # C
298 1 12.788000 18.176001 13.289000 # C
299 1 13.997000 18.497999 12.579000 # C
300 1 11.831000 17.243999 12.761000 # C
301 1 11.409000 18.301001 15.347000 # C
302 1 11.132000 5.677000 19.632999 # C
303 1 11.660000 5.988000 0.396000 # C
304 1 12.647000 5.506000 21.489000 # C
305 1 12.788000 7.196000 2.310000 # C
306 1 13.997000 7.518000 1.599000 # C
307 1 11.831000 6.265000 1.781000 # C
308 1 11.409000 7.322000 4.367000 # C
309 1 21.830000 16.656000 2.629000 # C
310 1 21.302999 16.968000 21.867001 # C
311 1 20.315001 16.485001 0.773000 # C
312 1 20.174999 18.176001 19.952999 # C
313 1 18.965000 18.497999 20.663000 # C
314 1 21.131001 17.243999 20.481001 # C
315 1 21.552999 18.301001 17.895000 # C
316 1 21.830000 5.677000 13.609000 # C
317 1 21.302999 5.988000 10.887000 # C
318 1 20.315001 5.506000 11.753000 # C
319 1 20.174999 7.196000 8.973000 # C
320 1 18.965000 7.518000 9.684000 # C
321 1 21.131001 6.265000 9.502000 # C
322 1 21.552999 7.322000 6.916000 # C
323 1 10.850000 16.656000 13.609000 # C
324 1 10.323000 16.968000 10.887000 # C
325 1 9.336000 16.485001 11.753000 # C
326 1 9.195000 18.176001 8.973000 # C
327 1 7.986000 18.497999 9.684000 # C
328 1 10.151000 17.243999 9.502000 # C
329 1 10.573000 18.301001 6.916000 # C
330 1 10.850000 5.677000 2.629000 # C
331 1 10.323000 5.988000 21.867001 # C
332 1 9.336000 5.506000 0.773000 # C
333 1 9.195000 7.196000 19.952999 # C
334 1 7.986000 7.518000 20.663000 # C
335 1 10.151000 6.265000 20.481001 # C
336 1 10.573000 7.322000 17.895000 # C
337 1 3.024000 5.270000 0.418000 # C
338 1 5.745000 4.742000 0.729000 # C
339 1 4.880000 3.755000 22.205999 # C
340 1 7.659000 3.614000 1.938000 # C
341 1 6.949000 2.405000 2.259000 # C
342 1 7.131000 4.571000 1.006000 # C
343 1 9.717000 4.993000 2.063000 # C
344 1 3.024000 16.249001 11.397000 # C
345 1 5.745000 15.722000 11.709000 # C
346 1 4.880000 14.735000 11.226000 # C
347 1 7.659000 14.594000 12.917000 # C
348 1 6.949000 13.385000 13.239000 # C
349 1 7.131000 15.550000 11.985000 # C
350 1 9.717000 15.972000 13.042000 # C
351 1 14.004000 5.270000 11.397000 # C
352 1 16.725000 4.742000 11.709000 # C
353 1 15.860000 3.755000 11.226000 # C
354 1 18.639000 3.614000 12.917000 # C
355 1 17.929001 2.405000 13.239000 # C
356 1 18.111000 4.571000 11.985000 # C
357 1 20.697001 4.993000 13.042000 # C
358 1 14.004000 16.249001 0.418000 # C
359 1 16.725000 15.722000 0.729000 # C
360 1 15.860000 14.735000 22.205999 # C
361 1 18.639000 14.594000 1.938000 # C
362 1 17.929001 13.385000 2.259000 # C
363 1 18.111000 15.550000 1.006000 # C
364 1 20.697001 15.972000 2.063000 # C
365 1 7.979000 5.552000 0.418000 # C
366 1 5.258000 6.079000 0.729000 # C
367 1 6.123000 7.066000 22.205999 # C
368 1 3.344000 7.207000 1.938000 # C
369 1 4.054000 8.416000 2.259000 # C
370 1 3.872000 6.251000 1.006000 # C
371 1 1.286000 5.829000 2.063000 # C
372 1 7.979000 16.531000 11.397000 # C
373 1 5.258000 17.059000 11.709000 # C
374 1 6.123000 18.046000 11.226000 # C
375 1 3.344000 18.186001 12.917000 # C
376 1 4.054000 19.396000 13.239000 # C
377 1 3.872000 17.230000 11.985000 # C
378 1 1.286000 16.808001 13.042000 # C
379 1 18.958000 5.552000 11.397000 # C
380 1 16.237000 6.079000 11.709000 # C
381 1 17.101999 7.066000 11.226000 # C
382 1 14.323000 7.207000 12.917000 # C
383 1 15.033000 8.416000 13.239000 # C
384 1 14.851000 6.251000 11.985000 # C
385 1 12.265000 5.829000 13.042000 # C
386 1 18.958000 16.531000 0.418000 # C
387 1 16.237000 17.059000 0.729000 # C
388 1 17.101999 18.046000 22.205999 # C
389 1 14.323000 18.186001 1.938000 # C
390 1 15.033000 19.396000 2.259000 # C
391 1 14.851000 17.230000 1.006000 # C
392 1 12.265000 16.808001 2.063000 # C
393 1 7.979000 5.270000 10.865000 # C
394 1 5.258000 4.742000 10.554000 # C
395 1 6.123000 3.755000 11.036000 # C
396 1 3.344000 3.614000 9.346000 # C
397 1 4.054000 2.405000 9.024000 # C
398 1 3.872000 4.571000 10.277000 # C
399 1 1.286000 4.993000 9.220000 # C
400 1 7.979000 16.249001 21.844999 # C
401 1 5.258000 15.722000 21.533001 # C
402 1 6.123000 14.735000 0.057000 # C
403 1 3.344000 14.594000 20.325001 # C
404 1 4.054000 13.385000 20.003000 # C
405 1 3.872000 15.550000 21.257000 # C
406 1 1.286000 15.972000 20.200001 # C
407 1 18.958000 5.270000 21.844999 # C
408 1 16.237000 4.742000 21.533001 # C
409 1 17.101999 3.755000 0.057000 # C
410 1 14.323000 3.614000 20.325001 # C
411 1 15.033000 2.405000 20.003000 # C
412 1 14.851000 4.571000 21.257000 # C
413 1 12.265000 4.993000 20.200001 # C
414 1 18.958000 16.249001 10.865000 # C
415 1 16.237000 15.722000 10.554000 # C
416 1 17.101999 14.735000 11.036000 # C
417 1 14.323000 14.594000 9.346000 # C
418 1 15.033000 13.385000 9.024000 # C
419 1 14.851000 15.550000 10.277000 # C
420 1 12.265000 15.972000 9.220000 # C
421 1 3.024000 5.552000 10.865000 # C
422 1 5.745000 6.079000 10.554000 # C
423 1 4.880000 7.066000 11.036000 # C
424 1 7.659000 7.207000 9.346000 # C
425 1 6.949000 8.416000 9.024000 # C
426 1 7.131000 6.251000 10.277000 # C
427 1 9.717000 5.829000 9.220000 # C
428 1 3.024000 16.531000 21.844999 # C
429 1 5.745000 17.059000 21.533001 # C
430 1 4.880000 18.046000 0.057000 # C
431 1 7.659000 18.186001 20.325001 # C
432 1 6.949000 19.396000 20.003000 # C
433 1 7.131000 17.230000 21.257000 # C
434 1 9.717000 16.808001 20.200001 # C
435 1 14.004000 5.552000 21.844999 # C
436 1 16.725000 6.079000 21.533001 # C
437 1 15.860000 7.066000 0.057000 # C
438 1 18.639000 7.207000 20.325001 # C
439 1 17.929001 8.416000 20.003000 # C
440 1 18.111000 6.251000 21.257000 # C
441 1 20.697001 5.829000 20.200001 # C
442 1 14.004000 16.531000 10.865000 # C
443 1 16.725000 17.059000 10.554000 # C
444 1 15.860000 18.046000 11.036000 # C
445 1 18.639000 18.186001 9.346000 # C
446 1 17.929001 19.396000 9.024000 # C
447 1 18.111000 17.230000 10.277000 # C
448 1 20.697001 16.808001 9.220000 # C
449 1 0.278000 2.933000 5.501000 # C
450 1 0.589000 5.655000 4.973000 # C
451 1 22.066000 4.789000 3.986000 # C
452 1 1.798000 7.569000 3.845000 # C
453 1 2.119000 6.858000 2.636000 # C
454 1 0.866000 7.040000 4.802000 # C
455 1 1.923000 9.626000 5.224000 # C
456 1 0.278000 13.913000 16.480000 # C
457 1 0.589000 16.634001 15.953000 # C
458 1 22.066000 15.769000 14.965000 # C
459 1 1.798000 18.548000 14.825000 # C
460 1 2.119000 17.837999 13.615000 # C
461 1 0.866000 18.020000 15.781000 # C
462 1 1.923000 20.606001 16.202999 # C
463 1 11.257000 2.933000 16.480000 # C
464 1 11.569000 5.655000 15.953000 # C
465 1 11.086000 4.789000 14.965000 # C
466 1 12.777000 7.569000 14.825000 # C
467 1 13.099000 6.858000 13.615000 # C
468 1 11.845000 7.040000 15.781000 # C
469 1 12.902000 9.626000 16.202999 # C
470 1 11.257000 13.913000 5.501000 # C
471 1 11.569000 16.634001 4.973000 # C
472 1 11.086000 15.769000 3.986000 # C
473 1 12.777000 18.548000 3.845000 # C
474 1 13.099000 17.837999 2.636000 # C
475 1 11.845000 18.020000 4.802000 # C
476 1 12.902000 20.606001 5.224000 # C
477 1 0.278000 7.888000 5.782000 # C
478 1 0.589000 5.167000 6.310000 # C
479 1 22.066000 6.032000 7.297000 # C
480 1 1.798000 3.253000 7.438000 # C
481 1 2.119000 3.963000 8.647000 # C
482 1 0.866000 3.781000 6.482000 # C
483 1 1.923000 1.195000 6.059000 # C
484 1 0.278000 18.868000 16.761999 # C
485 1 0.589000 16.146000 17.289000 # C
486 1 22.066000 17.011999 18.277000 # C
487 1 1.798000 14.232000 18.417000 # C
488 1 2.119000 14.943000 19.627001 # C
489 1 0.866000 14.761000 17.461000 # C
490 1 1.923000 12.175000 17.039000 # C
491 1 11.257000 7.888000 16.761999 # C
492 1 11.569000 5.167000 17.289000 # C
493 1 11.086000 6.032000 18.277000 # C
494 1 12.777000 3.253000 18.417000 # C
495 1 13.099000 3.963000 19.627001 # C
496 1 11.845000 3.781000 17.461000 # C
497 1 12.902000 1.195000 17.039000 # C
498 1 11.257000 18.868000 5.782000 # C
499 1 11.569000 16.146000 6.310000 # C
500 1 11.086000 17.011999 7.297000 # C
501 1 12.777000 14.232000 7.438000 # C
502 1 13.099000 14.943000 8.647000 # C
503 1 11.845000 14.761000 6.482000 # C
504 1 12.902000 12.175000 6.059000 # C
505 1 10.725000 7.888000 5.501000 # C
506 1 10.414000 5.167000 4.973000 # C
507 1 10.896000 6.032000 3.986000 # C
508 1 9.206000 3.253000 3.845000 # C
509 1 8.884000 3.963000 2.636000 # C
510 1 10.137000 3.781000 4.802000 # C
511 1 9.080000 1.195000 5.224000 # C
512 1 10.725000 18.868000 16.480000 # C
513 1 10.414000 16.146000 15.953000 # C
514 1 10.896000 17.011999 14.965000 # C
515 1 9.206000 14.232000 14.825000 # C
516 1 8.884000 14.943000 13.615000 # C
517 1 10.137000 14.761000 15.781000 # C
518 1 9.080000 12.175000 16.202999 # C
519 1 21.705000 7.888000 16.480000 # C
520 1 21.393000 5.167000 15.953000 # C
521 1 -0.083000 6.032000 14.965000 # C
522 1 20.184999 3.253000 14.825000 # C
523 1 19.863001 3.963000 13.615000 # C
524 1 21.117001 3.781000 15.781000 # C
525 1 20.059999 1.195000 16.202999 # C
526 1 21.705000 18.868000 5.501000 # C
527 1 21.393000 16.146000 4.973000 # C
528 1 -0.083000 17.011999 3.986000 # C
529 1 20.184999 14.232000 3.845000 # C
530 1 19.863001 14.943000 2.636000 # C
531 1 21.117001 14.761000 4.802000 # C
532 1 20.059999 12.175000 5.224000 # C
533 1 10.725000 2.933000 5.782000 # C
534 1 10.414000 5.655000 6.310000 # C
535 1 10.896000 4.789000 7.297000 # C
536 1 9.206000 7.569000 7.438000 # C
537 1 8.884000 6.858000 8.647000 # C
538 1 10.137000 7.040000 6.482000 # C
539 1 9.080000 9.626000 6.059000 # C
540 1 10.725000 13.913000 16.761999 # C
541 1 10.414000 16.634001 17.289000 # C
542 1 10.896000 15.769000 18.277000 # C
543 1 9.206000 18.548000 18.417000 # C
544 1 8.884000 17.837999 19.627001 # C
545 1 10.137000 18.020000 17.461000 # C
546 1 9.080000 20.606001 17.039000 # C
547 1 21.705000 2.933000 16.761999 # C
548 1 21.393000 5.655000 17.289000 # C
549 1 -0.083000 4.789000 18.277000 # C
550 1 20.184999 7.569000 18.417000 # C
551 1 19.863001 6.858000 19.627001 # C
552 1 21.117001 7.040000 17.461000 # C
553 1 20.059999 9.626000 17.039000 # C
554 1 21.705000 13.913000 5.782000 # C
555 1 21.393000 16.634001 6.310000 # C
556 1 -0.083000 15.769000 7.297000 # C
557 1 20.184999 18.548000 7.438000 # C
558 1 19.863001 17.837999 8.647000 # C
559 1 21.117001 18.020000 6.482000 # C
560 1 20.059999 20.606001 6.059000 # C
561 1 5.361000 0.187000 3.164000 # C
562 1 4.833000 0.498000 5.885000 # C
563 1 3.846000 21.975000 5.020000 # C
564 1 3.705000 1.707000 7.799000 # C
565 1 2.496000 2.029000 7.089000 # C
566 1 4.662000 0.775000 7.271000 # C
567 1 5.084000 1.832000 9.857000 # C
568 1 5.361000 11.166000 14.144000 # C
569 1 4.833000 11.478000 16.865000 # C
570 1 3.846000 10.995000 16.000000 # C
571 1 3.705000 12.686000 18.778999 # C
572 1 2.496000 13.008000 18.069000 # C
573 1 4.662000 11.755000 18.250999 # C
574 1 5.084000 12.811000 20.837000 # C
575 1 16.340000 0.187000 14.144000 # C
576 1 15.813000 0.498000 16.865000 # C
577 1 14.825000 21.975000 16.000000 # C
578 1 14.685000 1.707000 18.778999 # C
579 1 13.476000 2.029000 18.069000 # C
580 1 15.641000 0.775000 18.250999 # C
581 1 16.063000 1.832000 20.837000 # C
582 1 16.340000 11.166000 3.164000 # C
583 1 15.813000 11.478000 5.885000 # C
584 1 14.825000 10.995000 5.020000 # C
585 1 14.685000 12.686000 7.799000 # C
586 1 13.476000 13.008000 7.089000 # C
587 1 15.641000 11.755000 7.271000 # C
588 1 16.063000 12.811000 9.857000 # C
589 1 5.642000 0.187000 8.119000 # C
590 1 6.170000 0.498000 5.398000 # C
591 1 7.157000 21.975000 6.263000 # C
592 1 7.298000 1.707000 3.484000 # C
593 1 8.507000 2.029000 4.194000 # C
594 1 6.342000 0.775000 4.012000 # C
595 1 5.919000 1.832000 1.426000 # C
596 1 5.642000 11.166000 19.098000 # C
597 1 6.170000 11.478000 16.377001 # C
598 1 7.157000 10.995000 17.242001 # C
599 1 7.298000 12.686000 14.463000 # C
600 1 8.507000 13.008000 15.173000 # C
601 1 6.342000 11.755000 14.991000 # C
602 1 5.919000 12.811000 12.405000 # C
603 1 16.622000 0.187000 19.098000 # C
604 1 17.149000 0.498000 16.377001 # C
605 1 18.136999 21.975000 17.242001 # C
606 1 18.277000 1.707000 14.463000 # C
607 1 19.487000 2.029000 15.173000 # C
608 1 17.320999 0.775000 14.991000 # C
609 1 16.899000 1.832000 12.405000 # C
610 1 16.622000 11.166000 8.119000 # C
611 1 17.149000 11.478000 5.398000 # C
612 1 18.136999 10.995000 6.263000 # C
613 1 18.277000 12.686000 3.484000 # C
614 1 19.487000 13.008000 4.194000 # C
615 1 17.320999 11.755000 4.012000 # C
616 1 16.899000 12.811000 1.426000 # C
617 1 5.361000 10.635000 8.119000 # C
618 1 4.833000 10.323000 5.398000 # C
619 1 3.846000 10.806000 6.263000 # C
620 1 3.705000 9.115000 3.484000 # C
621 1 2.496000 8.793000 4.194000 # C
622 1 4.662000 10.046000 4.012000 # C
623 1 5.084000 8.990000 1.426000 # C
624 1 5.361000 21.614000 19.098000 # C
625 1 4.833000 21.302999 16.377001 # C
626 1 3.846000 -0.174000 17.242001 # C
627 1 3.705000 20.094000 14.463000 # C
628 1 2.496000 19.771999 15.173000 # C
629 1 4.662000 21.025999 14.991000 # C
630 1 5.084000 19.969000 12.405000 # C
631 1 16.340000 10.635000 19.098000 # C
632 1 15.813000 10.323000 16.377001 # C
633 1 14.825000 10.806000 17.242001 # C
634 1 14.685000 9.115000 14.463000 # C
635 1 13.476000 8.793000 15.173000 # C
636 1 15.641000 10.046000 14.991000 # C
637 1 16.063000 8.990000 12.405000 # C
638 1 16.340000 21.614000 8.119000 # C
639 1 15.813000 21.302999 5.398000 # C
640 1 14.825000 -0.174000 6.263000 # C
641 1 14.685000 20.094000 3.484000 # C
642 1 13.476000 19.771999 4.194000 # C
643 1 15.641000 21.025999 4.012000 # C
644 1 16.063000 19.969000 1.426000 # C
645 1 5.642000 10.635000 3.164000 # C
646 1 6.170000 10.323000 5.885000 # C
647 1 7.157000 10.806000 5.020000 # C
648 1 7.298000 9.115000 7.799000 # C
649 1 8.507000 8.793000 7.089000 # C
650 1 6.342000 10.046000 7.271000 # C
651 1 5.919000 8.990000 9.857000 # C
652 1 5.642000 21.614000 14.144000 # C
653 1 6.170000 21.302999 16.865000 # C
654 1 7.157000 -0.174000 16.000000 # C
655 1 7.298000 20.094000 18.778999 # C
656 1 8.507000 19.771999 18.069000 # C
657 1 6.342000 21.025999 18.250999 # C
658 1 5.919000 19.969000 20.837000 # C
659 1 16.622000 10.635000 14.144000 # C
660 1 17.149000 10.323000 16.865000 # C
661 1 18.136999 10.806000 16.000000 # C
662 1 18.277000 9.115000 18.778999 # C
663 1 19.487000 8.793000 18.069000 # C
664 1 17.320999 10.046000 18.250999 # C
665 1 16.899000 8.990000 20.837000 # C
666 1 16.622000 21.614000 3.164000 # C
667 1 17.149000 21.302999 5.885000 # C
668 1 18.136999 -0.174000 5.020000 # C
669 1 18.277000 20.094000 7.799000 # C
670 1 19.487000 19.771999 7.089000 # C
671 1 17.320999 21.025999 7.271000 # C
672 1 16.899000 19.969000 9.857000 # C

