LAMMPS data file. CGCMM style. atom_style atomic generated by VMD/TopoTools v1.6 on Tue May 03 11:28:43 EDT 2016
 768 atoms
 0 bonds
 0 angles
 0 dihedrals
 0 impropers
 1 atom types
 0 bond types
 0 angle types
 0 dihedral types
 0 improper types
 -0.486499 22.962500  xlo xhi
 -0.493499 22.955500  ylo yhi
 -0.491999 22.957000  zlo zhi

# Pair Coeffs
#
# 1  C

 Masses

 1 12.010700 # C

 Atoms

1 1 2.296000 1.268000 9.124000 # C
2 1 3.578000 1.268000 8.463000 # C
3 1 2.296000 12.993000 20.849001 # C
4 1 3.578000 12.993000 20.188000 # C
5 1 14.021000 1.268000 20.849001 # C
6 1 15.302000 1.268000 20.188000 # C
7 1 14.021000 12.993000 9.124000 # C
8 1 15.302000 12.993000 8.463000 # C
9 1 15.302000 4.591000 20.849001 # C
10 1 14.021000 4.591000 20.188000 # C
11 1 15.302000 16.316000 9.124000 # C
12 1 14.021000 16.316000 8.463000 # C
13 1 3.578000 4.591000 9.124000 # C
14 1 2.296000 4.591000 8.463000 # C
15 1 3.578000 16.316000 20.849001 # C
16 1 2.296000 16.316000 20.188000 # C
17 1 3.578000 12.993000 8.463000 # C
18 1 2.296000 12.993000 9.124000 # C
19 1 3.578000 1.268000 20.188000 # C
20 1 2.296000 1.268000 20.849001 # C
21 1 15.302000 12.993000 20.188000 # C
22 1 14.021000 12.993000 20.849001 # C
23 1 15.302000 1.268000 8.463000 # C
24 1 14.021000 1.268000 9.124000 # C
25 1 14.021000 16.316000 20.188000 # C
26 1 15.302000 16.316000 20.849001 # C
27 1 14.021000 4.591000 8.463000 # C
28 1 15.302000 4.591000 9.124000 # C
29 1 2.296000 16.316000 8.463000 # C
30 1 3.578000 16.316000 9.124000 # C
31 1 2.296000 4.591000 20.188000 # C
32 1 3.578000 4.591000 20.849001 # C
33 1 9.130000 2.289000 1.270000 # C
34 1 8.469000 3.571000 1.270000 # C
35 1 9.130000 14.013000 12.994000 # C
36 1 8.469000 15.295000 12.994000 # C
37 1 20.854000 2.289000 12.994000 # C
38 1 20.193001 3.571000 12.994000 # C
39 1 20.854000 14.013000 1.270000 # C
40 1 20.193001 15.295000 1.270000 # C
41 1 20.854000 15.295000 4.593000 # C
42 1 20.193001 14.013000 4.593000 # C
43 1 20.854000 3.571000 16.318001 # C
44 1 20.193001 2.289000 16.318001 # C
45 1 9.130000 15.295000 16.318001 # C
46 1 8.469000 14.013000 16.318001 # C
47 1 9.130000 3.571000 4.593000 # C
48 1 8.469000 2.289000 4.593000 # C
49 1 8.469000 3.571000 12.994000 # C
50 1 9.130000 2.289000 12.994000 # C
51 1 8.469000 15.295000 1.270000 # C
52 1 9.130000 14.013000 1.270000 # C
53 1 20.193001 3.571000 1.270000 # C
54 1 20.854000 2.289000 1.270000 # C
55 1 20.193001 15.295000 12.994000 # C
56 1 20.854000 14.013000 12.994000 # C
57 1 20.193001 14.013000 16.318001 # C
58 1 20.854000 15.295000 16.318001 # C
59 1 20.193001 2.289000 4.593000 # C
60 1 20.854000 3.571000 4.593000 # C
61 1 8.469000 14.013000 4.593000 # C
62 1 9.130000 15.295000 4.593000 # C
63 1 8.469000 2.289000 16.318001 # C
64 1 9.130000 3.571000 16.318001 # C
65 1 1.275000 9.123000 2.290000 # C
66 1 1.275000 8.462000 3.572000 # C
67 1 1.275000 20.847000 14.015000 # C
68 1 1.275000 20.186001 15.297000 # C
69 1 13.000000 9.123000 14.015000 # C
70 1 13.000000 8.462000 15.297000 # C
71 1 13.000000 20.847000 2.290000 # C
72 1 13.000000 20.186001 3.572000 # C
73 1 4.599000 20.847000 15.297000 # C
74 1 4.599000 20.186001 14.015000 # C
75 1 4.599000 9.123000 3.572000 # C
76 1 4.599000 8.462000 2.290000 # C
77 1 16.323000 20.847000 3.572000 # C
78 1 16.323000 20.186001 2.290000 # C
79 1 16.323000 9.123000 15.297000 # C
80 1 16.323000 8.462000 14.015000 # C
81 1 13.000000 8.462000 3.572000 # C
82 1 13.000000 9.123000 2.290000 # C
83 1 13.000000 20.186001 15.297000 # C
84 1 13.000000 20.847000 14.015000 # C
85 1 1.275000 8.462000 15.297000 # C
86 1 1.275000 9.123000 14.015000 # C
87 1 1.275000 20.186001 3.572000 # C
88 1 1.275000 20.847000 2.290000 # C
89 1 16.323000 20.186001 14.015000 # C
90 1 16.323000 20.847000 15.297000 # C
91 1 16.323000 8.462000 2.290000 # C
92 1 16.323000 9.123000 3.572000 # C
93 1 4.599000 20.186001 2.290000 # C
94 1 4.599000 20.847000 3.572000 # C
95 1 4.599000 8.462000 14.015000 # C
96 1 4.599000 9.123000 15.297000 # C
97 1 18.862000 8.151000 2.601000 # C
98 1 18.862000 9.433000 3.262000 # C
99 1 18.862000 19.875999 14.325000 # C
100 1 18.862000 21.158001 14.986000 # C
101 1 7.137000 8.151000 14.325000 # C
102 1 7.137000 9.433000 14.986000 # C
103 1 7.137000 19.875999 2.601000 # C
104 1 7.137000 21.158001 3.262000 # C
105 1 22.184999 21.158001 14.325000 # C
106 1 22.184999 19.875999 14.986000 # C
107 1 22.184999 9.433000 2.601000 # C
108 1 22.184999 8.151000 3.262000 # C
109 1 10.461000 21.158001 2.601000 # C
110 1 10.461000 19.875999 3.262000 # C
111 1 10.461000 9.433000 14.325000 # C
112 1 10.461000 8.151000 14.986000 # C
113 1 7.137000 9.433000 3.262000 # C
114 1 7.137000 8.151000 2.601000 # C
115 1 7.137000 21.158001 14.986000 # C
116 1 7.137000 19.875999 14.325000 # C
117 1 18.862000 9.433000 14.986000 # C
118 1 18.862000 8.151000 14.325000 # C
119 1 18.862000 21.158001 3.262000 # C
120 1 18.862000 19.875999 2.601000 # C
121 1 10.461000 19.875999 14.986000 # C
122 1 10.461000 21.158001 14.325000 # C
123 1 10.461000 8.151000 3.262000 # C
124 1 10.461000 9.433000 2.601000 # C
125 1 22.184999 19.875999 3.262000 # C
126 1 22.184999 21.158001 2.601000 # C
127 1 22.184999 8.151000 14.986000 # C
128 1 22.184999 9.433000 14.325000 # C
129 1 19.882999 14.985000 10.455000 # C
130 1 21.165001 14.324000 10.455000 # C
131 1 19.882999 3.260000 22.180000 # C
132 1 21.165001 2.599000 22.180000 # C
133 1 8.158000 14.985000 22.180000 # C
134 1 9.440000 14.324000 22.180000 # C
135 1 8.158000 3.260000 10.455000 # C
136 1 9.440000 2.599000 10.455000 # C
137 1 9.440000 3.260000 7.132000 # C
138 1 8.158000 2.599000 7.132000 # C
139 1 9.440000 14.985000 18.857000 # C
140 1 8.158000 14.324000 18.857000 # C
141 1 21.165001 3.260000 18.857000 # C
142 1 19.882999 2.599000 18.857000 # C
143 1 21.165001 14.985000 7.132000 # C
144 1 19.882999 14.324000 7.132000 # C
145 1 21.165001 14.324000 22.180000 # C
146 1 19.882999 14.985000 22.180000 # C
147 1 21.165001 2.599000 10.455000 # C
148 1 19.882999 3.260000 10.455000 # C
149 1 9.440000 14.324000 10.455000 # C
150 1 8.158000 14.985000 10.455000 # C
151 1 9.440000 2.599000 22.180000 # C
152 1 8.158000 3.260000 22.180000 # C
153 1 8.158000 2.599000 18.857000 # C
154 1 9.440000 3.260000 18.857000 # C
155 1 8.158000 14.324000 7.132000 # C
156 1 9.440000 14.985000 7.132000 # C
157 1 19.882999 2.599000 7.132000 # C
158 1 21.165001 3.260000 7.132000 # C
159 1 19.882999 14.324000 18.857000 # C
160 1 21.165001 14.985000 18.857000 # C
161 1 3.267000 7.130000 9.435000 # C
162 1 2.606000 7.130000 8.153000 # C
163 1 3.267000 18.855000 21.159000 # C
164 1 2.606000 18.855000 19.877001 # C
165 1 14.992000 7.130000 21.159000 # C
166 1 14.331000 7.130000 19.877001 # C
167 1 14.992000 18.855000 9.435000 # C
168 1 14.331000 18.855000 8.153000 # C
169 1 14.992000 10.454000 19.877001 # C
170 1 14.331000 10.454000 21.159000 # C
171 1 14.992000 22.177999 8.153000 # C
172 1 14.331000 22.177999 9.435000 # C
173 1 3.267000 10.454000 8.153000 # C
174 1 2.606000 10.454000 9.435000 # C
175 1 3.267000 22.177999 19.877001 # C
176 1 2.606000 22.177999 21.159000 # C
177 1 2.606000 18.855000 8.153000 # C
178 1 3.267000 18.855000 9.435000 # C
179 1 2.606000 7.130000 19.877001 # C
180 1 3.267000 7.130000 21.159000 # C
181 1 14.331000 18.855000 19.877001 # C
182 1 14.992000 18.855000 21.159000 # C
183 1 14.331000 7.130000 8.153000 # C
184 1 14.992000 7.130000 9.435000 # C
185 1 14.331000 22.177999 21.159000 # C
186 1 14.992000 22.177999 19.877001 # C
187 1 14.331000 10.454000 9.435000 # C
188 1 14.992000 10.454000 8.153000 # C
189 1 2.606000 22.177999 9.435000 # C
190 1 3.267000 22.177999 8.153000 # C
191 1 2.606000 10.454000 21.159000 # C
192 1 3.267000 10.454000 19.877001 # C
193 1 21.165001 22.177999 14.325000 # C
194 1 19.882999 22.177999 14.986000 # C
195 1 21.165001 10.454000 2.601000 # C
196 1 19.882999 10.454000 3.262000 # C
197 1 9.440000 22.177999 2.601000 # C
198 1 8.158000 22.177999 3.262000 # C
199 1 9.440000 10.454000 14.325000 # C
200 1 8.158000 10.454000 14.986000 # C
201 1 8.158000 18.855000 2.601000 # C
202 1 9.440000 18.855000 3.262000 # C
203 1 8.158000 7.130000 14.325000 # C
204 1 9.440000 7.130000 14.986000 # C
205 1 19.882999 18.855000 14.325000 # C
206 1 21.165001 18.855000 14.986000 # C
207 1 19.882999 7.130000 2.601000 # C
208 1 21.165001 7.130000 3.262000 # C
209 1 19.882999 10.454000 14.986000 # C
210 1 21.165001 10.454000 14.325000 # C
211 1 19.882999 22.177999 3.262000 # C
212 1 21.165001 22.177999 2.601000 # C
213 1 8.158000 10.454000 3.262000 # C
214 1 9.440000 10.454000 2.601000 # C
215 1 8.158000 22.177999 14.986000 # C
216 1 9.440000 22.177999 14.325000 # C
217 1 9.440000 7.130000 3.262000 # C
218 1 8.158000 7.130000 2.601000 # C
219 1 9.440000 18.855000 14.986000 # C
220 1 8.158000 18.855000 14.325000 # C
221 1 21.165001 7.130000 14.986000 # C
222 1 19.882999 7.130000 14.325000 # C
223 1 21.165001 18.855000 3.262000 # C
224 1 19.882999 18.855000 2.601000 # C
225 1 14.331000 21.158001 22.180000 # C
226 1 14.992000 19.875999 22.180000 # C
227 1 14.331000 9.433000 10.455000 # C
228 1 14.992000 8.151000 10.455000 # C
229 1 2.606000 21.158001 10.455000 # C
230 1 3.267000 19.875999 10.455000 # C
231 1 2.606000 9.433000 22.180000 # C
232 1 3.267000 8.151000 22.180000 # C
233 1 2.606000 8.151000 18.857000 # C
234 1 3.267000 9.433000 18.857000 # C
235 1 2.606000 19.875999 7.132000 # C
236 1 3.267000 21.158001 7.132000 # C
237 1 14.331000 8.151000 7.132000 # C
238 1 14.992000 9.433000 7.132000 # C
239 1 14.331000 19.875999 18.857000 # C
240 1 14.992000 21.158001 18.857000 # C
241 1 14.992000 19.875999 10.455000 # C
242 1 14.331000 21.158001 10.455000 # C
243 1 14.992000 8.151000 22.180000 # C
244 1 14.331000 9.433000 22.180000 # C
245 1 3.267000 19.875999 22.180000 # C
246 1 2.606000 21.158001 22.180000 # C
247 1 3.267000 8.151000 10.455000 # C
248 1 2.606000 9.433000 10.455000 # C
249 1 3.267000 9.433000 7.132000 # C
250 1 2.606000 8.151000 7.132000 # C
251 1 3.267000 21.158001 18.857000 # C
252 1 2.606000 19.875999 18.857000 # C
253 1 14.992000 9.433000 18.857000 # C
254 1 14.331000 8.151000 18.857000 # C
255 1 14.992000 21.158001 7.132000 # C
256 1 14.331000 19.875999 7.132000 # C
257 1 22.184999 14.324000 21.159000 # C
258 1 22.184999 14.985000 19.877001 # C
259 1 22.184999 2.599000 9.435000 # C
260 1 22.184999 3.260000 8.153000 # C
261 1 10.461000 14.324000 9.435000 # C
262 1 10.461000 14.985000 8.153000 # C
263 1 10.461000 2.599000 21.159000 # C
264 1 10.461000 3.260000 19.877001 # C
265 1 18.862000 2.599000 8.153000 # C
266 1 18.862000 3.260000 9.435000 # C
267 1 18.862000 14.324000 19.877001 # C
268 1 18.862000 14.985000 21.159000 # C
269 1 7.137000 2.599000 19.877001 # C
270 1 7.137000 3.260000 21.159000 # C
271 1 7.137000 14.324000 8.153000 # C
272 1 7.137000 14.985000 9.435000 # C
273 1 10.461000 14.985000 19.877001 # C
274 1 10.461000 14.324000 21.159000 # C
275 1 10.461000 3.260000 8.153000 # C
276 1 10.461000 2.599000 9.435000 # C
277 1 22.184999 14.985000 8.153000 # C
278 1 22.184999 14.324000 9.435000 # C
279 1 22.184999 3.260000 19.877001 # C
280 1 22.184999 2.599000 21.159000 # C
281 1 7.137000 3.260000 9.435000 # C
282 1 7.137000 2.599000 8.153000 # C
283 1 7.137000 14.985000 21.159000 # C
284 1 7.137000 14.324000 19.877001 # C
285 1 18.862000 3.260000 21.159000 # C
286 1 18.862000 2.599000 19.877001 # C
287 1 18.862000 14.985000 9.435000 # C
288 1 18.862000 14.324000 8.153000 # C
289 1 4.599000 15.295000 20.849001 # C
290 1 4.599000 14.013000 20.188000 # C
291 1 4.599000 3.571000 9.124000 # C
292 1 4.599000 2.289000 8.463000 # C
293 1 16.323000 15.295000 9.124000 # C
294 1 16.323000 14.013000 8.463000 # C
295 1 16.323000 3.571000 20.849001 # C
296 1 16.323000 2.289000 20.188000 # C
297 1 1.275000 2.289000 9.124000 # C
298 1 1.275000 3.571000 8.463000 # C
299 1 1.275000 14.013000 20.849001 # C
300 1 1.275000 15.295000 20.188000 # C
301 1 13.000000 2.289000 20.849001 # C
302 1 13.000000 3.571000 20.188000 # C
303 1 13.000000 14.013000 9.124000 # C
304 1 13.000000 15.295000 8.463000 # C
305 1 16.323000 14.013000 20.188000 # C
306 1 16.323000 15.295000 20.849001 # C
307 1 16.323000 2.289000 8.463000 # C
308 1 16.323000 3.571000 9.124000 # C
309 1 4.599000 14.013000 8.463000 # C
310 1 4.599000 15.295000 9.124000 # C
311 1 4.599000 2.289000 20.188000 # C
312 1 4.599000 3.571000 20.849001 # C
313 1 13.000000 3.571000 8.463000 # C
314 1 13.000000 2.289000 9.124000 # C
315 1 13.000000 15.295000 20.188000 # C
316 1 13.000000 14.013000 20.849001 # C
317 1 1.275000 3.571000 20.188000 # C
318 1 1.275000 2.289000 20.849001 # C
319 1 1.275000 15.295000 8.463000 # C
320 1 1.275000 14.013000 9.124000 # C
321 1 3.578000 8.462000 12.994000 # C
322 1 2.296000 9.123000 12.994000 # C
323 1 3.578000 20.186001 1.270000 # C
324 1 2.296000 20.847000 1.270000 # C
325 1 15.302000 8.462000 1.270000 # C
326 1 14.021000 9.123000 1.270000 # C
327 1 15.302000 20.186001 12.994000 # C
328 1 14.021000 20.847000 12.994000 # C
329 1 14.021000 20.186001 16.318001 # C
330 1 15.302000 20.847000 16.318001 # C
331 1 14.021000 8.462000 4.593000 # C
332 1 15.302000 9.123000 4.593000 # C
333 1 2.296000 20.186001 4.593000 # C
334 1 3.578000 20.847000 4.593000 # C
335 1 2.296000 8.462000 16.318001 # C
336 1 3.578000 9.123000 16.318001 # C
337 1 2.296000 9.123000 1.270000 # C
338 1 3.578000 8.462000 1.270000 # C
339 1 2.296000 20.847000 12.994000 # C
340 1 3.578000 20.186001 12.994000 # C
341 1 14.021000 9.123000 12.994000 # C
342 1 15.302000 8.462000 12.994000 # C
343 1 14.021000 20.847000 1.270000 # C
344 1 15.302000 20.186001 1.270000 # C
345 1 15.302000 20.847000 4.593000 # C
346 1 14.021000 20.186001 4.593000 # C
347 1 15.302000 9.123000 16.318001 # C
348 1 14.021000 8.462000 16.318001 # C
349 1 3.578000 20.847000 16.318001 # C
350 1 2.296000 20.186001 16.318001 # C
351 1 3.578000 9.123000 4.593000 # C
352 1 2.296000 8.462000 4.593000 # C
353 1 20.193001 16.316000 14.015000 # C
354 1 20.854000 16.316000 15.297000 # C
355 1 20.193001 4.591000 2.290000 # C
356 1 20.854000 4.591000 3.572000 # C
357 1 8.469000 16.316000 2.290000 # C
358 1 9.130000 16.316000 3.572000 # C
359 1 8.469000 4.591000 14.015000 # C
360 1 9.130000 4.591000 15.297000 # C
361 1 8.469000 12.993000 3.572000 # C
362 1 9.130000 12.993000 2.290000 # C
363 1 8.469000 1.268000 15.297000 # C
364 1 9.130000 1.268000 14.015000 # C
365 1 20.193001 12.993000 15.297000 # C
366 1 20.854000 12.993000 14.015000 # C
367 1 20.193001 1.268000 3.572000 # C
368 1 20.854000 1.268000 2.290000 # C
369 1 20.854000 4.591000 15.297000 # C
370 1 20.193001 4.591000 14.015000 # C
371 1 20.854000 16.316000 3.572000 # C
372 1 20.193001 16.316000 2.290000 # C
373 1 9.130000 4.591000 3.572000 # C
374 1 8.469000 4.591000 2.290000 # C
375 1 9.130000 16.316000 15.297000 # C
376 1 8.469000 16.316000 14.015000 # C
377 1 9.130000 1.268000 2.290000 # C
378 1 8.469000 1.268000 3.572000 # C
379 1 9.130000 12.993000 14.015000 # C
380 1 8.469000 12.993000 15.297000 # C
381 1 20.854000 1.268000 14.015000 # C
382 1 20.193001 1.268000 15.297000 # C
383 1 20.854000 12.993000 2.290000 # C
384 1 20.193001 12.993000 3.572000 # C
385 1 0.990000 -0.001000 10.740000 # C
386 1 1.983000 -0.001000 9.748000 # C
387 1 4.883000 -0.001000 6.847000 # C
388 1 3.891000 -0.001000 7.840000 # C
389 1 0.990000 11.723000 22.465000 # C
390 1 1.983000 11.723000 21.472000 # C
391 1 4.883000 11.723000 18.572001 # C
392 1 3.891000 11.723000 19.563999 # C
393 1 16.608000 5.861000 22.465000 # C
394 1 15.615000 5.861000 21.472000 # C
395 1 12.715000 5.861000 18.572001 # C
396 1 13.707000 5.861000 19.563999 # C
397 1 16.608000 17.586000 10.740000 # C
398 1 15.615000 17.586000 9.748000 # C
399 1 12.715000 17.586000 6.847000 # C
400 1 13.707000 17.586000 7.840000 # C
401 1 4.883000 17.586000 22.465000 # C
402 1 3.891000 17.586000 21.472000 # C
403 1 0.990000 17.586000 18.572001 # C
404 1 1.983000 17.586000 19.563999 # C
405 1 4.883000 11.723000 6.847000 # C
406 1 3.891000 11.723000 7.840000 # C
407 1 0.990000 11.723000 10.740000 # C
408 1 1.983000 11.723000 9.748000 # C
409 1 4.883000 -0.001000 18.572001 # C
410 1 3.891000 -0.001000 19.563999 # C
411 1 0.990000 -0.001000 22.465000 # C
412 1 1.983000 -0.001000 21.472000 # C
413 1 16.608000 11.723000 18.572001 # C
414 1 15.615000 11.723000 19.563999 # C
415 1 12.715000 11.723000 22.465000 # C
416 1 13.707000 11.723000 21.472000 # C
417 1 12.715000 17.586000 18.572001 # C
418 1 13.707000 17.586000 19.563999 # C
419 1 16.608000 17.586000 22.465000 # C
420 1 15.615000 17.586000 21.472000 # C
421 1 12.715000 5.861000 6.847000 # C
422 1 13.707000 5.861000 7.840000 # C
423 1 16.608000 5.861000 10.740000 # C
424 1 15.615000 5.861000 9.748000 # C
425 1 10.746000 0.983000 0.000000 # C
426 1 9.753000 1.976000 0.000000 # C
427 1 6.853000 4.876000 0.000000 # C
428 1 7.845000 3.884000 0.000000 # C
429 1 10.746000 12.708000 11.725000 # C
430 1 9.753000 13.700000 11.725000 # C
431 1 6.853000 16.601000 11.725000 # C
432 1 7.845000 15.608000 11.725000 # C
433 1 22.469999 16.601000 5.862000 # C
434 1 21.478001 15.608000 5.862000 # C
435 1 18.577000 12.708000 5.862000 # C
436 1 19.570000 13.700000 5.862000 # C
437 1 22.469999 4.876000 17.587000 # C
438 1 21.478001 3.884000 17.587000 # C
439 1 18.577000 0.983000 17.587000 # C
440 1 19.570000 1.976000 17.587000 # C
441 1 6.853000 4.876000 11.725000 # C
442 1 7.845000 3.884000 11.725000 # C
443 1 10.746000 0.983000 11.725000 # C
444 1 9.753000 1.976000 11.725000 # C
445 1 6.853000 16.601000 0.000000 # C
446 1 7.845000 15.608000 0.000000 # C
447 1 10.746000 12.708000 0.000000 # C
448 1 9.753000 13.700000 0.000000 # C
449 1 18.577000 16.601000 11.725000 # C
450 1 19.570000 15.608000 11.725000 # C
451 1 22.469999 12.708000 11.725000 # C
452 1 21.478001 13.700000 11.725000 # C
453 1 18.577000 12.708000 17.587000 # C
454 1 19.570000 13.700000 17.587000 # C
455 1 22.469999 16.601000 17.587000 # C
456 1 21.478001 15.608000 17.587000 # C
457 1 18.577000 0.983000 5.862000 # C
458 1 19.570000 1.976000 5.862000 # C
459 1 22.469999 4.876000 5.862000 # C
460 1 21.478001 3.884000 5.862000 # C
461 1 6.853000 12.708000 5.862000 # C
462 1 7.845000 13.700000 5.862000 # C
463 1 10.746000 16.601000 5.862000 # C
464 1 9.753000 15.608000 5.862000 # C
465 1 0.006000 10.738000 0.985000 # C
466 1 0.006000 9.746000 1.977000 # C
467 1 0.006000 6.846000 4.878000 # C
468 1 0.006000 7.838000 3.885000 # C
469 1 11.730000 10.738000 12.710000 # C
470 1 11.730000 9.746000 13.702000 # C
471 1 11.730000 6.846000 16.601999 # C
472 1 11.730000 7.838000 15.610000 # C
473 1 5.868000 22.462999 16.601999 # C
474 1 5.868000 21.471001 15.610000 # C
475 1 5.868000 18.570000 12.710000 # C
476 1 5.868000 19.563000 13.702000 # C
477 1 17.593000 22.462999 4.878000 # C
478 1 17.593000 21.471001 3.885000 # C
479 1 17.593000 18.570000 0.985000 # C
480 1 17.593000 19.563000 1.977000 # C
481 1 11.730000 6.846000 4.878000 # C
482 1 11.730000 7.838000 3.885000 # C
483 1 11.730000 10.738000 0.985000 # C
484 1 11.730000 9.746000 1.977000 # C
485 1 11.730000 18.570000 16.601999 # C
486 1 11.730000 19.563000 15.610000 # C
487 1 11.730000 22.462999 12.710000 # C
488 1 11.730000 21.471001 13.702000 # C
489 1 0.006000 6.846000 16.601999 # C
490 1 0.006000 7.838000 15.610000 # C
491 1 0.006000 10.738000 12.710000 # C
492 1 0.006000 9.746000 13.702000 # C
493 1 17.593000 18.570000 12.710000 # C
494 1 17.593000 19.563000 13.702000 # C
495 1 17.593000 22.462999 16.601999 # C
496 1 17.593000 21.471001 15.610000 # C
497 1 5.868000 18.570000 0.985000 # C
498 1 5.868000 19.563000 1.977000 # C
499 1 5.868000 22.462999 4.878000 # C
500 1 5.868000 21.471001 3.885000 # C
501 1 5.868000 6.846000 12.710000 # C
502 1 5.868000 7.838000 13.702000 # C
503 1 5.868000 10.738000 16.601999 # C
504 1 5.868000 9.746000 15.610000 # C
505 1 17.593000 6.846000 0.985000 # C
506 1 17.593000 7.838000 1.977000 # C
507 1 17.593000 10.738000 4.878000 # C
508 1 17.593000 9.746000 3.885000 # C
509 1 0.006000 22.462999 12.710000 # C
510 1 0.006000 21.471001 13.702000 # C
511 1 0.006000 18.570000 16.601999 # C
512 1 0.006000 19.563000 15.610000 # C
513 1 11.730000 22.462999 0.985000 # C
514 1 11.730000 21.471001 1.977000 # C
515 1 11.730000 18.570000 4.878000 # C
516 1 11.730000 19.563000 3.885000 # C
517 1 5.868000 10.738000 4.878000 # C
518 1 5.868000 9.746000 3.885000 # C
519 1 5.868000 6.846000 0.985000 # C
520 1 5.868000 7.838000 1.977000 # C
521 1 17.593000 10.738000 16.601999 # C
522 1 17.593000 9.746000 15.610000 # C
523 1 17.593000 6.846000 12.710000 # C
524 1 17.593000 7.838000 13.702000 # C
525 1 0.006000 18.570000 4.878000 # C
526 1 0.006000 19.563000 3.885000 # C
527 1 0.006000 22.462999 0.985000 # C
528 1 0.006000 21.471001 1.977000 # C
529 1 18.577000 4.876000 0.000000 # C
530 1 19.570000 3.884000 0.000000 # C
531 1 22.469999 0.983000 0.000000 # C
532 1 21.478001 1.976000 0.000000 # C
533 1 10.746000 4.876000 5.862000 # C
534 1 9.753000 3.884000 5.862000 # C
535 1 6.853000 0.983000 5.862000 # C
536 1 7.845000 1.976000 5.862000 # C
537 1 10.746000 16.601000 17.587000 # C
538 1 9.753000 15.608000 17.587000 # C
539 1 6.853000 12.708000 17.587000 # C
540 1 7.845000 13.700000 17.587000 # C
541 1 22.469999 12.708000 0.000000 # C
542 1 21.478001 13.700000 0.000000 # C
543 1 18.577000 16.601000 0.000000 # C
544 1 19.570000 15.608000 0.000000 # C
545 1 22.469999 0.983000 11.725000 # C
546 1 21.478001 1.976000 11.725000 # C
547 1 18.577000 4.876000 11.725000 # C
548 1 19.570000 3.884000 11.725000 # C
549 1 6.853000 0.983000 17.587000 # C
550 1 7.845000 1.976000 17.587000 # C
551 1 10.746000 4.876000 17.587000 # C
552 1 9.753000 3.884000 17.587000 # C
553 1 4.883000 5.861000 10.740000 # C
554 1 3.891000 5.861000 9.748000 # C
555 1 0.990000 5.861000 6.847000 # C
556 1 1.983000 5.861000 7.840000 # C
557 1 16.608000 -0.001000 6.847000 # C
558 1 15.615000 -0.001000 7.840000 # C
559 1 12.715000 -0.001000 10.740000 # C
560 1 13.707000 -0.001000 9.748000 # C
561 1 0.990000 17.586000 6.847000 # C
562 1 1.983000 17.586000 7.840000 # C
563 1 4.883000 17.586000 10.740000 # C
564 1 3.891000 17.586000 9.748000 # C
565 1 0.990000 5.861000 18.572001 # C
566 1 1.983000 5.861000 19.563999 # C
567 1 4.883000 5.861000 22.465000 # C
568 1 3.891000 5.861000 21.472000 # C
569 1 12.715000 -0.001000 22.465000 # C
570 1 13.707000 -0.001000 21.472000 # C
571 1 16.608000 -0.001000 18.572001 # C
572 1 15.615000 -0.001000 19.563999 # C
573 1 12.715000 11.723000 10.740000 # C
574 1 13.707000 11.723000 9.748000 # C
575 1 16.608000 11.723000 6.847000 # C
576 1 15.615000 11.723000 7.840000 # C
577 1 22.469999 -0.001000 12.710000 # C
578 1 21.478001 -0.001000 13.702000 # C
579 1 18.577000 -0.001000 16.601999 # C
580 1 19.570000 -0.001000 15.610000 # C
581 1 22.469999 11.723000 0.985000 # C
582 1 21.478001 11.723000 1.977000 # C
583 1 18.577000 11.723000 4.878000 # C
584 1 19.570000 11.723000 3.885000 # C
585 1 10.746000 -0.001000 0.985000 # C
586 1 9.753000 -0.001000 1.977000 # C
587 1 6.853000 -0.001000 4.878000 # C
588 1 7.845000 -0.001000 3.885000 # C
589 1 6.853000 17.586000 0.985000 # C
590 1 7.845000 17.586000 1.977000 # C
591 1 10.746000 17.586000 4.878000 # C
592 1 9.753000 17.586000 3.885000 # C
593 1 6.853000 5.861000 12.710000 # C
594 1 7.845000 5.861000 13.702000 # C
595 1 10.746000 5.861000 16.601999 # C
596 1 9.753000 5.861000 15.610000 # C
597 1 18.577000 11.723000 16.601999 # C
598 1 19.570000 11.723000 15.610000 # C
599 1 22.469999 11.723000 12.710000 # C
600 1 21.478001 11.723000 13.702000 # C
601 1 18.577000 -0.001000 4.878000 # C
602 1 19.570000 -0.001000 3.885000 # C
603 1 22.469999 -0.001000 0.985000 # C
604 1 21.478001 -0.001000 1.977000 # C
605 1 10.746000 5.861000 4.878000 # C
606 1 9.753000 5.861000 3.885000 # C
607 1 6.853000 5.861000 0.985000 # C
608 1 7.845000 5.861000 1.977000 # C
609 1 10.746000 17.586000 16.601999 # C
610 1 9.753000 17.586000 15.610000 # C
611 1 6.853000 17.586000 12.710000 # C
612 1 7.845000 17.586000 13.702000 # C
613 1 22.469999 17.586000 4.878000 # C
614 1 21.478001 17.586000 3.885000 # C
615 1 18.577000 17.586000 0.985000 # C
616 1 19.570000 17.586000 1.977000 # C
617 1 12.715000 22.462999 0.000000 # C
618 1 13.707000 21.471001 0.000000 # C
619 1 16.608000 18.570000 0.000000 # C
620 1 15.615000 19.563000 0.000000 # C
621 1 12.715000 10.738000 11.725000 # C
622 1 13.707000 9.746000 11.725000 # C
623 1 16.608000 6.846000 11.725000 # C
624 1 15.615000 7.838000 11.725000 # C
625 1 0.990000 10.738000 0.000000 # C
626 1 1.983000 9.746000 0.000000 # C
627 1 4.883000 6.846000 0.000000 # C
628 1 3.891000 7.838000 0.000000 # C
629 1 0.990000 6.846000 17.587000 # C
630 1 1.983000 7.838000 17.587000 # C
631 1 4.883000 10.738000 17.587000 # C
632 1 3.891000 9.746000 17.587000 # C
633 1 0.990000 18.570000 5.862000 # C
634 1 1.983000 19.563000 5.862000 # C
635 1 4.883000 22.462999 5.862000 # C
636 1 3.891000 21.471001 5.862000 # C
637 1 12.715000 6.846000 5.862000 # C
638 1 13.707000 7.838000 5.862000 # C
639 1 16.608000 10.738000 5.862000 # C
640 1 15.615000 9.746000 5.862000 # C
641 1 16.608000 18.570000 11.725000 # C
642 1 15.615000 19.563000 11.725000 # C
643 1 12.715000 22.462999 11.725000 # C
644 1 13.707000 21.471001 11.725000 # C
645 1 16.608000 6.846000 0.000000 # C
646 1 15.615000 7.838000 0.000000 # C
647 1 12.715000 10.738000 0.000000 # C
648 1 13.707000 9.746000 0.000000 # C
649 1 4.883000 10.738000 5.862000 # C
650 1 3.891000 9.746000 5.862000 # C
651 1 0.990000 6.846000 5.862000 # C
652 1 1.983000 7.838000 5.862000 # C
653 1 4.883000 22.462999 17.587000 # C
654 1 3.891000 21.471001 17.587000 # C
655 1 0.990000 18.570000 17.587000 # C
656 1 1.983000 19.563000 17.587000 # C
657 1 0.006000 12.708000 22.465000 # C
658 1 0.006000 13.700000 21.472000 # C
659 1 0.006000 16.601000 18.572001 # C
660 1 0.006000 15.608000 19.563999 # C
661 1 0.006000 0.983000 10.740000 # C
662 1 0.006000 1.976000 9.748000 # C
663 1 0.006000 4.876000 6.847000 # C
664 1 0.006000 3.884000 7.840000 # C
665 1 11.730000 12.708000 10.740000 # C
666 1 11.730000 13.700000 9.748000 # C
667 1 11.730000 16.601000 6.847000 # C
668 1 11.730000 15.608000 7.840000 # C
669 1 17.593000 0.983000 6.847000 # C
670 1 17.593000 1.976000 7.840000 # C
671 1 17.593000 4.876000 10.740000 # C
672 1 17.593000 3.884000 9.748000 # C
673 1 5.868000 0.983000 18.572001 # C
674 1 5.868000 1.976000 19.563999 # C
675 1 5.868000 4.876000 22.465000 # C
676 1 5.868000 3.884000 21.472000 # C
677 1 5.868000 12.708000 6.847000 # C
678 1 5.868000 13.700000 7.840000 # C
679 1 5.868000 16.601000 10.740000 # C
680 1 5.868000 15.608000 9.748000 # C
681 1 11.730000 16.601000 18.572001 # C
682 1 11.730000 15.608000 19.563999 # C
683 1 11.730000 12.708000 22.465000 # C
684 1 11.730000 13.700000 21.472000 # C
685 1 0.006000 16.601000 6.847000 # C
686 1 0.006000 15.608000 7.840000 # C
687 1 0.006000 12.708000 10.740000 # C
688 1 0.006000 13.700000 9.748000 # C
689 1 5.868000 4.876000 10.740000 # C
690 1 5.868000 3.884000 9.748000 # C
691 1 5.868000 0.983000 6.847000 # C
692 1 5.868000 1.976000 7.840000 # C
693 1 17.593000 4.876000 22.465000 # C
694 1 17.593000 3.884000 21.472000 # C
695 1 17.593000 0.983000 18.572001 # C
696 1 17.593000 1.976000 19.563999 # C
697 1 5.868000 16.601000 22.465000 # C
698 1 5.868000 15.608000 21.472000 # C
699 1 5.868000 12.708000 18.572001 # C
700 1 5.868000 13.700000 19.563999 # C
701 1 17.593000 16.601000 10.740000 # C
702 1 17.593000 15.608000 9.748000 # C
703 1 17.593000 12.708000 6.847000 # C
704 1 17.593000 13.700000 7.840000 # C
705 1 11.730000 0.983000 22.465000 # C
706 1 11.730000 1.976000 21.472000 # C
707 1 11.730000 4.876000 18.572001 # C
708 1 11.730000 3.884000 19.563999 # C
709 1 17.593000 12.708000 18.572001 # C
710 1 17.593000 13.700000 19.563999 # C
711 1 17.593000 16.601000 22.465000 # C
712 1 17.593000 15.608000 21.472000 # C
713 1 11.730000 4.876000 6.847000 # C
714 1 11.730000 3.884000 7.840000 # C
715 1 11.730000 0.983000 10.740000 # C
716 1 11.730000 1.976000 9.748000 # C
717 1 0.006000 4.876000 18.572001 # C
718 1 0.006000 3.884000 19.563999 # C
719 1 0.006000 0.983000 22.465000 # C
720 1 0.006000 1.976000 21.472000 # C
721 1 4.883000 6.846000 11.725000 # C
722 1 3.891000 7.838000 11.725000 # C
723 1 0.990000 10.738000 11.725000 # C
724 1 1.983000 9.746000 11.725000 # C
725 1 4.883000 18.570000 0.000000 # C
726 1 3.891000 19.563000 0.000000 # C
727 1 0.990000 22.462999 0.000000 # C
728 1 1.983000 21.471001 0.000000 # C
729 1 12.715000 18.570000 17.587000 # C
730 1 13.707000 19.563000 17.587000 # C
731 1 16.608000 22.462999 17.587000 # C
732 1 15.615000 21.471001 17.587000 # C
733 1 0.990000 22.462999 11.725000 # C
734 1 1.983000 21.471001 11.725000 # C
735 1 4.883000 18.570000 11.725000 # C
736 1 3.891000 19.563000 11.725000 # C
737 1 16.608000 22.462999 5.862000 # C
738 1 15.615000 21.471001 5.862000 # C
739 1 12.715000 18.570000 5.862000 # C
740 1 13.707000 19.563000 5.862000 # C
741 1 16.608000 10.738000 17.587000 # C
742 1 15.615000 9.746000 17.587000 # C
743 1 12.715000 6.846000 17.587000 # C
744 1 13.707000 7.838000 17.587000 # C
745 1 18.577000 17.586000 12.710000 # C
746 1 19.570000 17.586000 13.702000 # C
747 1 22.469999 17.586000 16.601999 # C
748 1 21.478001 17.586000 15.610000 # C
749 1 18.577000 5.861000 0.985000 # C
750 1 19.570000 5.861000 1.977000 # C
751 1 22.469999 5.861000 4.878000 # C
752 1 21.478001 5.861000 3.885000 # C
753 1 6.853000 11.723000 4.878000 # C
754 1 7.845000 11.723000 3.885000 # C
755 1 10.746000 11.723000 0.985000 # C
756 1 9.753000 11.723000 1.977000 # C
757 1 6.853000 -0.001000 16.601999 # C
758 1 7.845000 -0.001000 15.610000 # C
759 1 10.746000 -0.001000 12.710000 # C
760 1 9.753000 -0.001000 13.702000 # C
761 1 22.469999 5.861000 16.601999 # C
762 1 21.478001 5.861000 15.610000 # C
763 1 18.577000 5.861000 12.710000 # C
764 1 19.570000 5.861000 13.702000 # C
765 1 10.746000 11.723000 12.710000 # C
766 1 9.753000 11.723000 13.702000 # C
767 1 6.853000 11.723000 16.601999 # C
768 1 7.845000 11.723000 15.610000 # C

