LAMMPS data file. CGCMM style. atom_style atomic generated by VMD/TopoTools v1.6 on Tue May 03 11:31:44 EDT 2016
 384 atoms
 0 bonds
 0 angles
 0 dihedrals
 0 impropers
 48 atom types
 0 bond types
 0 angle types
 0 dihedral types
 0 improper types
 -0.005500 18.406501  xlo xhi
 -0.027500 18.384501  ylo yhi
 -0.028500 18.383501  zlo zhi

# Pair Coeffs
#
# 1  C
# 2  C1
# 3  C10
# 4  C11
# 5  C12
# 6  C13
# 7  C14
# 8  C15
# 9  C16
# 10  C17
# 11  C18
# 12  C19
# 13  C20
# 14  C21
# 15  C22
# 16  C23
# 17  C24
# 18  C25
# 19  C26
# 20  C27
# 21  C28
# 22  C29
# 23  C30
# 24  C31
# 25  C32
# 26  C33
# 27  C34
# 28  C35
# 29  C36
# 30  C37
# 31  C38
# 32  C41
# 33  C45
# 34  C49
# 35  C5
# 36  C53
# 37  C57
# 38  C61
# 39  C65
# 40  C69
# 41  C73
# 42  C77
# 43  C81
# 44  C85
# 45  C89
# 46  C9
# 47  C93
# 48  C97

 Masses

 1 12.010700 # C
 2 12.010700 # C1
 3 12.010700 # C10
 4 12.010700 # C11
 5 12.010700 # C12
 6 12.010700 # C13
 7 12.010700 # C14
 8 12.010700 # C15
 9 12.010700 # C16
 10 12.010700 # C17
 11 12.010700 # C18
 12 12.010700 # C19
 13 12.010700 # C20
 14 12.010700 # C21
 15 12.010700 # C22
 16 12.010700 # C23
 17 12.010700 # C24
 18 12.010700 # C25
 19 12.010700 # C26
 20 12.010700 # C27
 21 12.010700 # C28
 22 12.010700 # C29
 23 12.010700 # C30
 24 12.010700 # C31
 25 12.010700 # C32
 26 12.010700 # C33
 27 12.010700 # C34
 28 12.010700 # C35
 29 12.010700 # C36
 30 12.010700 # C37
 31 12.010700 # C38
 32 12.010700 # C41
 33 12.010700 # C45
 34 12.010700 # C49
 35 12.010700 # C5
 36 12.010700 # C53
 37 12.010700 # C57
 38 12.010700 # C61
 39 12.010700 # C65
 40 12.010700 # C69
 41 12.010700 # C73
 42 12.010700 # C77
 43 12.010700 # C81
 44 12.010700 # C85
 45 12.010700 # C89
 46 12.010700 # C9
 47 12.010700 # C93
 48 12.010700 # C97

 Atoms

1 2 3.464000 3.861000 14.193000 # C1
2 1 2.353000 3.109000 14.631000 # C
3 1 1.434000 3.706000 15.560000 # C
4 1 0.432000 2.825000 16.080999 # C
5 35 12.669000 13.066000 4.988000 # C5
6 1 11.558000 12.315000 5.425000 # C
7 1 10.640000 12.912000 6.355000 # C
8 1 9.638000 12.031000 6.875000 # C
9 46 5.732000 14.496000 4.988000 # C9
10 1 6.843000 15.248000 5.425000 # C
11 1 7.761000 14.651000 6.355000 # C
12 1 8.764000 15.532000 6.875000 # C
13 6 14.938000 5.291000 14.193000 # C13
14 1 16.049000 6.042000 14.631000 # C
15 1 16.966999 5.445000 15.560000 # C
16 1 17.969999 6.326000 16.080999 # C
17 10 14.938000 13.066000 13.367000 # C17
18 1 16.049000 12.315000 12.929000 # C
19 1 16.966999 12.912000 12.000000 # C
20 1 17.969999 12.031000 11.479000 # C
21 14 5.732000 3.861000 4.161000 # C21
22 1 6.843000 3.109000 3.723000 # C
23 1 7.761000 3.706000 2.794000 # C
24 1 8.764000 2.825000 2.273000 # C
25 18 12.669000 5.291000 4.161000 # C25
26 1 11.558000 6.042000 3.723000 # C
27 1 10.640000 5.445000 2.794000 # C
28 1 9.638000 6.326000 2.273000 # C
29 22 3.464000 14.496000 13.367000 # C29
30 1 2.353000 15.248000 12.929000 # C
31 1 1.434000 14.651000 12.000000 # C
32 1 0.432000 15.532000 11.479000 # C
33 26 14.217000 3.441000 3.859000 # C33
34 1 14.655000 2.330000 3.108000 # C
35 1 15.584000 1.412000 3.705000 # C
36 1 16.105000 0.409000 2.824000 # C
37 30 5.011000 12.647000 13.065000 # C37
38 1 5.449000 11.536000 12.313000 # C
39 1 6.378000 10.618000 12.910000 # C
40 1 6.899000 9.615000 12.030000 # C
41 32 5.011000 5.710000 14.495000 # C41
42 1 5.449000 6.821000 15.247000 # C
43 1 6.378000 7.739000 14.650000 # C
44 1 6.899000 8.742000 15.531000 # C
45 33 14.217000 14.916000 5.289000 # C45
46 1 14.655000 16.027000 6.041000 # C
47 1 15.584000 16.945000 5.444000 # C
48 1 16.105000 17.948000 6.325000 # C
49 34 13.390000 14.916000 13.065000 # C49
50 1 12.953000 16.027000 12.313000 # C
51 1 12.023000 16.945000 12.910000 # C
52 1 11.503000 17.948000 12.030000 # C
53 36 4.185000 5.710000 3.859000 # C53
54 1 3.747000 6.821000 3.108000 # C
55 1 2.818000 7.739000 3.705000 # C
56 1 2.297000 8.742000 2.824000 # C
57 37 4.185000 12.647000 5.289000 # C57
58 1 3.747000 11.536000 6.041000 # C
59 1 2.818000 10.618000 5.444000 # C
60 1 2.297000 9.615000 6.325000 # C
61 38 13.390000 3.441000 14.495000 # C61
62 1 12.953000 2.330000 15.247000 # C
63 1 12.023000 1.412000 14.650000 # C
64 1 11.503000 0.409000 15.531000 # C
65 39 3.883000 14.195000 3.440000 # C65
66 1 3.131000 14.632000 2.329000 # C
67 1 3.728000 15.562000 1.411000 # C
68 1 2.847000 16.082001 0.408000 # C
69 40 13.089000 4.989000 12.646000 # C69
70 1 12.337000 5.426000 11.535000 # C
71 1 12.934000 6.356000 10.617000 # C
72 1 12.053000 6.876000 9.614000 # C
73 41 14.519000 4.989000 5.709000 # C73
74 1 15.270000 5.426000 6.820000 # C
75 1 14.673000 6.356000 7.738000 # C
76 1 15.554000 6.876000 8.741000 # C
77 42 5.313000 14.195000 14.914000 # C77
78 1 6.065000 14.632000 16.025000 # C
79 1 5.468000 15.562000 16.944000 # C
80 1 6.349000 16.082001 17.945999 # C
81 43 13.089000 13.368000 14.914000 # C81
82 1 12.337000 12.930000 16.025000 # C
83 1 12.934000 12.001000 16.944000 # C
84 1 12.053000 11.480000 17.945999 # C
85 44 3.883000 4.162000 5.709000 # C85
86 1 3.131000 3.725000 6.820000 # C
87 1 3.728000 2.795000 7.738000 # C
88 1 2.847000 2.275000 8.741000 # C
89 45 5.313000 4.162000 12.646000 # C89
90 1 6.065000 3.725000 11.535000 # C
91 1 5.468000 2.795000 10.617000 # C
92 1 6.349000 2.275000 9.614000 # C
93 47 14.519000 13.368000 3.440000 # C93
94 1 15.270000 12.930000 2.329000 # C
95 1 14.673000 12.001000 1.411000 # C
96 1 15.554000 11.480000 0.408000 # C
97 48 17.691999 8.044000 8.764000 # C97
98 1 16.940001 6.933000 8.326000 # C
99 1 17.537001 6.015000 7.397000 # C
100 1 16.656000 5.012000 6.876000 # C
101 3 8.486000 17.250000 17.969999 # C10
102 1 7.734000 16.139000 17.532000 # C
103 1 8.331000 15.221000 16.603001 # C
104 1 7.450000 14.218000 16.082001 # C
105 3 9.916000 10.313000 17.969999 # C10
106 1 10.667000 11.424000 17.532000 # C
107 1 10.071000 12.342000 16.603001 # C
108 1 10.951000 13.345000 16.082001 # C
109 3 0.710000 1.107000 8.764000 # C10
110 1 1.462000 2.218000 8.326000 # C
111 1 0.865000 3.136000 7.397000 # C
112 1 1.746000 4.139000 6.876000 # C
113 4 8.486000 1.107000 9.591000 # C11
114 1 7.734000 2.218000 10.028000 # C
115 1 8.331000 3.136000 10.958000 # C
116 1 7.450000 4.139000 11.478000 # C
117 4 17.691999 10.313000 0.385000 # C11
118 1 16.940001 11.424000 0.822000 # C
119 1 17.537001 12.342000 1.752000 # C
120 1 16.656000 13.345000 2.272000 # C
121 5 0.710000 17.250000 0.385000 # C12
122 1 1.462000 16.139000 0.822000 # C
123 1 0.865000 15.221000 1.752000 # C
124 1 1.746000 14.218000 2.272000 # C
125 5 9.916000 8.044000 9.591000 # C12
126 1 10.667000 6.933000 10.028000 # C
127 1 10.071000 6.015000 10.958000 # C
128 1 10.951000 5.012000 11.478000 # C
129 5 17.271999 0.386000 0.686000 # C12
130 1 16.160999 0.823000 1.438000 # C
131 1 15.243000 1.753000 0.841000 # C
132 1 14.240000 2.274000 1.722000 # C
133 6 8.066000 9.592000 9.892000 # C13
134 1 6.956000 10.029000 10.644000 # C
135 1 6.037000 10.959000 10.047000 # C
136 1 5.035000 11.479000 10.928000 # C
137 6 1.129000 9.592000 8.462000 # C13
138 1 2.240000 10.029000 7.711000 # C
139 1 3.159000 10.959000 8.307000 # C
140 1 4.161000 11.479000 7.427000 # C
141 7 10.335000 0.386000 17.667999 # C14
142 1 11.446000 0.823000 16.916000 # C
143 1 12.364000 1.753000 17.513000 # C
144 1 13.367000 2.274000 16.632000 # C
145 7 10.335000 17.971001 9.892000 # C14
146 1 11.446000 17.533001 10.644000 # C
147 1 12.364000 16.604000 10.047000 # C
148 1 13.367000 16.083000 10.928000 # C
149 7 1.129000 8.765000 0.686000 # C14
150 1 2.240000 8.328000 1.438000 # C
151 1 3.159000 7.398000 0.841000 # C
152 1 4.161000 6.877000 1.722000 # C
153 8 8.066000 8.765000 17.667999 # C15
154 1 6.956000 8.328000 16.916000 # C
155 1 6.037000 7.398000 17.513000 # C
156 1 5.035000 6.877000 16.632000 # C
157 8 17.271999 17.971001 8.462000 # C15
158 1 16.160999 17.533001 7.711000 # C
159 1 15.243000 16.604000 8.307000 # C
160 1 14.240000 16.083000 7.427000 # C
161 9 9.614000 8.463000 1.106000 # C16
162 1 10.052000 7.712000 2.217000 # C
163 1 10.981000 8.309000 3.135000 # C
164 1 11.502000 7.428000 4.138000 # C
165 9 0.408000 17.669001 10.312000 # C16
166 1 0.846000 16.917999 11.423000 # C
167 1 1.775000 17.514000 12.341000 # C
168 1 2.296000 16.634001 13.343000 # C
169 9 0.408000 0.688000 17.249001 # C16
170 1 0.846000 1.439000 16.138000 # C
171 1 1.775000 0.842000 15.219000 # C
172 1 2.296000 1.723000 14.217000 # C
173 10 9.614000 9.893000 8.043000 # C17
174 1 10.052000 10.645000 6.932000 # C
175 1 10.981000 10.048000 6.014000 # C
176 1 11.502000 10.929000 5.011000 # C
177 10 8.787000 17.669001 8.043000 # C17
178 1 8.350000 16.917999 6.932000 # C
179 1 7.421000 17.514000 6.014000 # C
180 1 6.900000 16.634001 5.011000 # C
181 11 17.993000 8.463000 17.249001 # C18
182 1 17.556000 7.712000 16.138000 # C
183 1 16.625999 8.309000 15.219000 # C
184 1 16.106001 7.428000 14.217000 # C
185 11 17.993000 9.893000 10.312000 # C18
186 1 17.556000 10.645000 11.423000 # C
187 1 16.625999 10.048000 12.341000 # C
188 1 16.106001 10.929000 13.343000 # C
189 11 8.787000 0.688000 1.106000 # C18
190 1 8.350000 1.439000 2.217000 # C
191 1 7.421000 0.842000 3.135000 # C
192 1 6.900000 1.723000 4.138000 # C
193 12 14.938000 14.496000 4.161000 # C19
194 1 16.049000 15.248000 3.723000 # C
195 1 16.966999 14.651000 2.794000 # C
196 1 17.969999 15.532000 2.273000 # C
197 12 5.732000 5.291000 13.367000 # C19
198 1 6.843000 6.042000 12.929000 # C
199 1 7.761000 5.445000 12.000000 # C
200 1 8.764000 6.326000 11.479000 # C
201 13 12.669000 3.861000 13.367000 # C20
202 1 11.558000 3.109000 12.929000 # C
203 1 10.640000 3.706000 12.000000 # C
204 1 9.638000 2.825000 11.479000 # C
205 13 3.464000 13.066000 4.161000 # C20
206 1 2.353000 12.315000 3.723000 # C
207 1 1.434000 12.912000 2.794000 # C
208 1 0.432000 12.031000 2.273000 # C
209 13 3.464000 5.291000 4.988000 # C20
210 1 2.353000 6.042000 5.425000 # C
211 1 1.434000 5.445000 6.355000 # C
212 1 0.432000 6.326000 6.875000 # C
213 14 12.669000 14.496000 14.193000 # C21
214 1 11.558000 15.248000 14.631000 # C
215 1 10.640000 14.651000 15.560000 # C
216 1 9.638000 15.532000 16.080999 # C
217 14 5.732000 13.066000 14.193000 # C21
218 1 6.843000 12.315000 14.631000 # C
219 1 7.761000 12.912000 15.560000 # C
220 1 8.764000 12.031000 16.080999 # C
221 15 14.938000 3.861000 4.988000 # C22
222 1 16.049000 3.109000 5.425000 # C
223 1 16.966999 3.706000 6.355000 # C
224 1 17.969999 2.825000 6.875000 # C
225 15 4.185000 14.916000 14.495000 # C22
226 1 3.747000 16.027000 15.247000 # C
227 1 2.818000 16.945000 14.650000 # C
228 1 2.297000 17.948000 15.531000 # C
229 15 13.390000 5.710000 5.289000 # C22
230 1 12.953000 6.821000 6.041000 # C
231 1 12.023000 7.739000 5.444000 # C
232 1 11.503000 8.742000 6.325000 # C
233 16 13.390000 12.647000 3.859000 # C23
234 1 12.953000 11.536000 3.108000 # C
235 1 12.023000 10.618000 3.705000 # C
236 1 11.503000 9.615000 2.824000 # C
237 16 4.185000 3.441000 13.065000 # C23
238 1 3.747000 2.330000 12.313000 # C
239 1 2.818000 1.412000 12.910000 # C
240 1 2.297000 0.409000 12.030000 # C
241 17 5.011000 3.441000 5.289000 # C24
242 1 5.449000 2.330000 6.041000 # C
243 1 6.378000 1.412000 5.444000 # C
244 1 6.899000 0.409000 6.325000 # C
245 17 14.217000 12.647000 14.495000 # C24
246 1 14.655000 11.536000 15.247000 # C
247 1 15.584000 10.618000 14.650000 # C
248 1 16.105000 9.615000 15.531000 # C
249 17 14.217000 5.710000 13.065000 # C24
250 1 14.655000 6.821000 12.313000 # C
251 1 15.584000 7.739000 12.910000 # C
252 1 16.105000 8.742000 12.030000 # C
253 18 5.011000 14.916000 3.859000 # C25
254 1 5.449000 16.027000 3.108000 # C
255 1 6.378000 16.945000 3.705000 # C
256 1 6.899000 17.948000 2.824000 # C
257 18 14.519000 4.162000 14.914000 # C25
258 1 15.270000 3.725000 16.025000 # C
259 1 14.673000 2.795000 16.944000 # C
260 1 15.554000 2.275000 17.945999 # C
261 19 5.313000 13.368000 5.709000 # C26
262 1 6.065000 12.930000 6.820000 # C
263 1 5.468000 12.001000 7.738000 # C
264 1 6.349000 11.480000 8.741000 # C
265 19 3.883000 13.368000 12.646000 # C26
266 1 3.131000 12.930000 11.535000 # C
267 1 3.728000 12.001000 10.617000 # C
268 1 2.847000 11.480000 9.614000 # C
269 19 13.089000 4.162000 3.440000 # C26
270 1 12.337000 3.725000 2.329000 # C
271 1 12.934000 2.795000 1.411000 # C
272 1 12.053000 2.275000 0.408000 # C
273 20 5.313000 4.989000 3.440000 # C27
274 1 6.065000 5.426000 2.329000 # C
275 1 5.468000 6.356000 1.411000 # C
276 1 6.349000 6.876000 0.408000 # C
277 20 14.519000 14.195000 12.646000 # C27
278 1 15.270000 14.632000 11.535000 # C
279 1 14.673000 15.562000 10.617000 # C
280 1 15.554000 16.082001 9.614000 # C
281 21 13.089000 14.195000 5.709000 # C28
282 1 12.337000 14.632000 6.820000 # C
283 1 12.934000 15.562000 7.738000 # C
284 1 12.053000 16.082001 8.741000 # C
285 21 3.883000 4.989000 14.914000 # C28
286 1 3.131000 5.426000 16.025000 # C
287 1 3.728000 6.356000 16.944000 # C
288 1 2.847000 6.876000 17.945999 # C
289 21 0.710000 10.313000 9.591000 # C28
290 1 1.462000 11.424000 10.028000 # C
291 1 0.865000 12.342000 10.958000 # C
292 1 1.746000 13.345000 11.478000 # C
293 22 9.916000 1.107000 0.385000 # C29
294 1 10.667000 2.218000 0.822000 # C
295 1 10.071000 3.136000 1.752000 # C
296 1 10.951000 4.139000 2.272000 # C
297 22 8.486000 8.044000 0.385000 # C29
298 1 7.734000 6.933000 0.822000 # C
299 1 8.331000 6.015000 1.752000 # C
300 1 7.450000 5.012000 2.272000 # C
301 23 17.691999 17.250000 9.591000 # C30
302 1 16.940001 16.139000 10.028000 # C
303 1 17.537001 15.221000 10.958000 # C
304 1 16.656000 14.218000 11.478000 # C
305 23 9.916000 17.250000 8.764000 # C30
306 1 10.667000 16.139000 8.326000 # C
307 1 10.071000 15.221000 7.397000 # C
308 1 10.951000 14.218000 6.876000 # C
309 23 0.710000 8.044000 17.969999 # C30
310 1 1.462000 6.933000 17.532000 # C
311 1 0.865000 6.015000 16.603001 # C
312 1 1.746000 5.012000 16.082001 # C
313 24 17.691999 1.107000 17.969999 # C31
314 1 16.940001 2.218000 17.532000 # C
315 1 17.537001 3.136000 16.603001 # C
316 1 16.656000 4.139000 16.082001 # C
317 24 8.486000 10.313000 8.764000 # C31
318 1 7.734000 11.424000 8.326000 # C
319 1 8.331000 12.342000 7.397000 # C
320 1 7.450000 13.345000 6.876000 # C
321 25 1.129000 17.971001 17.667999 # C32
322 1 2.240000 17.533001 16.916000 # C
323 1 3.159000 16.604000 17.513000 # C
324 1 4.161000 16.083000 16.632000 # C
325 25 10.335000 8.765000 8.462000 # C32
326 1 11.446000 8.328000 7.711000 # C
327 1 12.364000 7.398000 8.307000 # C
328 1 13.367000 6.877000 7.427000 # C
329 25 17.271999 8.765000 9.892000 # C32
330 1 16.160999 8.328000 10.644000 # C
331 1 15.243000 7.398000 10.047000 # C
332 1 14.240000 6.877000 10.928000 # C
333 26 8.066000 17.971001 0.686000 # C33
334 1 6.956000 17.533001 1.438000 # C
335 1 6.037000 16.604000 0.841000 # C
336 1 5.035000 16.083000 1.722000 # C
337 26 8.066000 0.386000 8.462000 # C33
338 1 6.956000 0.823000 7.711000 # C
339 1 6.037000 1.753000 8.307000 # C
340 1 5.035000 2.274000 7.427000 # C
341 27 17.271999 9.592000 17.667999 # C34
342 1 16.160999 10.029000 16.916000 # C
343 1 15.243000 10.959000 17.513000 # C
344 1 14.240000 11.479000 16.632000 # C
345 27 10.335000 9.592000 0.686000 # C34
346 1 11.446000 10.029000 1.438000 # C
347 1 12.364000 10.959000 0.841000 # C
348 1 13.367000 11.479000 1.722000 # C
349 27 1.129000 0.386000 9.892000 # C34
350 1 2.240000 0.823000 10.644000 # C
351 1 3.159000 1.753000 10.047000 # C
352 1 4.161000 2.274000 10.928000 # C
353 28 8.787000 9.893000 17.249001 # C35
354 1 8.350000 10.645000 16.138000 # C
355 1 7.421000 10.048000 15.219000 # C
356 1 6.900000 10.929000 14.217000 # C
357 28 17.993000 0.688000 8.043000 # C35
358 1 17.556000 1.439000 6.932000 # C
359 1 16.625999 0.842000 6.014000 # C
360 1 16.106001 1.723000 5.011000 # C
361 29 17.993000 17.669001 1.106000 # C36
362 1 17.556000 16.917999 2.217000 # C
363 1 16.625999 17.514000 3.135000 # C
364 1 16.106001 16.634001 4.138000 # C
365 29 8.787000 8.463000 10.312000 # C36
366 1 8.350000 7.712000 11.423000 # C
367 1 7.421000 8.309000 12.341000 # C
368 1 6.900000 7.428000 13.343000 # C
369 29 9.614000 0.688000 10.312000 # C36
370 1 10.052000 1.439000 11.423000 # C
371 1 10.981000 0.842000 12.341000 # C
372 1 11.502000 1.723000 13.343000 # C
373 30 0.408000 9.893000 1.106000 # C37
374 1 0.846000 10.645000 2.217000 # C
375 1 1.775000 10.048000 3.135000 # C
376 1 2.296000 10.929000 4.138000 # C
377 30 0.408000 8.463000 8.043000 # C37
378 1 0.846000 7.712000 6.932000 # C
379 1 1.775000 8.309000 6.014000 # C
380 1 2.296000 7.428000 5.011000 # C
381 31 9.614000 17.669001 17.249001 # C38
382 1 10.052000 16.917999 16.138000 # C
383 1 10.981000 17.514000 15.219000 # C
384 1 11.502000 16.634001 14.217000 # C

