LAMMPS data file. CGCMM style. atom_style atomic generated by VMD/TopoTools v1.6 on Tue May 03 11:29:56 EDT 2016
 6144 atoms
 0 bonds
 0 angles
 0 dihedrals
 0 impropers
 41 atom types
 0 bond types
 0 angle types
 0 dihedral types
 0 improper types
 -0.000001 70.914000  xlo xhi
 -0.000001 70.914000  ylo yhi
 -0.000001 70.914000  zlo zhi

# Pair Coeffs
#
# 1  C1
# 2  C10
# 3  C12
# 4  C13
# 5  C17
# 6  C19
# 7  C20
# 8  C24
# 9  C25
# 10  C26
# 11  C30
# 12  C31
# 13  C36
# 14  C37
# 15  C38
# 16  C39
# 17  C40
# 18  C49
# 19  C50
# 20  C51
# 21  C52
# 22  C53
# 23  C54
# 24  C55
# 25  C57
# 26  C67
# 27  C68
# 28  C69
# 29  C7
# 30  C70
# 31  C71
# 32  C72
# 33  C73
# 34  C74
# 35  C75
# 36  C76
# 37  C8
# 38  C80
# 39  C81
# 40  C82
# 41  C9

 Masses

 1 12.010700 # C1
 2 12.010700 # C10
 3 12.010700 # C12
 4 12.010700 # C13
 5 12.010700 # C17
 6 12.010700 # C19
 7 12.010700 # C20
 8 12.010700 # C24
 9 12.010700 # C25
 10 12.010700 # C26
 11 12.010700 # C30
 12 12.010700 # C31
 13 12.010700 # C36
 14 12.010700 # C37
 15 12.010700 # C38
 16 12.010700 # C39
 17 12.010700 # C40
 18 12.010700 # C49
 19 12.010700 # C50
 20 12.010700 # C51
 21 12.010700 # C52
 22 12.010700 # C53
 23 12.010700 # C54
 24 12.010700 # C55
 25 12.010700 # C57
 26 12.010700 # C67
 27 12.010700 # C68
 28 12.010700 # C69
 29 12.010700 # C7
 30 12.010700 # C70
 31 12.010700 # C71
 32 12.010700 # C72
 33 12.010700 # C73
 34 12.010700 # C74
 35 12.010700 # C75
 36 12.010700 # C76
 37 12.010700 # C8
 38 12.010700 # C80
 39 12.010700 # C81
 40 12.010700 # C82
 41 12.010700 # C9

 Atoms

1 1 53.000000 43.071999 64.544998 # C1
2 29 54.306000 48.585999 56.562000 # C7
3 37 46.816002 45.570999 0.184000 # C8
4 41 54.837002 43.367001 59.025002 # C9
5 2 38.833000 40.056999 69.792000 # C10
6 3 39.651001 56.646000 58.794998 # C12
7 10 65.073997 61.095001 37.110001 # C26
8 11 41.068001 67.453003 57.380001 # C30
9 18 54.675999 40.860001 63.324001 # C49
10 19 51.775002 45.057999 62.744999 # C50
11 20 53.019001 43.654999 67.533997 # C51
12 26 53.765999 50.908001 54.903999 # C67
13 27 52.269001 47.667000 58.466000 # C68
14 28 56.806999 47.078999 56.192001 # C69
15 30 45.596001 47.783001 69.421997 # C70
16 31 45.016998 43.584999 1.409000 # C71
17 32 49.805000 44.988998 0.166000 # C72
18 33 52.747002 45.214001 59.976002 # C73
19 34 55.314999 40.847000 60.382000 # C74
20 35 56.942001 44.344002 57.198002 # C75
21 36 40.737999 40.974998 0.915000 # C76
22 38 38.897999 59.112000 57.238998 # C80
23 39 37.747002 55.221001 60.644001 # C81
24 40 42.533001 56.158001 59.029999 # C82
25 3 66.902000 62.071999 39.215000 # C12
26 3 64.123001 62.942001 35.020000 # C12
27 3 63.717999 58.575001 37.589001 # C12
28 3 64.806999 39.078999 67.908997 # C12
29 3 41.303001 67.942001 60.262001 # C12
30 3 39.513000 64.987000 56.626999 # C12
31 3 42.917999 68.877998 55.474998 # C12
32 4 70.333000 37.174999 37.734001 # C13
33 5 52.235001 44.224998 65.127998 # C17
34 5 53.779999 42.202999 65.440002 # C17
35 5 53.153999 42.911999 63.058998 # C17
36 6 54.507999 47.340000 57.283001 # C19
37 6 55.313999 49.041000 55.599998 # C19
38 6 53.049999 49.325001 56.727001 # C19
39 6 47.398998 44.417999 0.950000 # C19
40 6 47.710999 46.441002 70.318001 # C19
41 6 45.330002 45.730999 0.030000 # C19
42 6 55.863998 42.445999 58.497002 # C19
43 6 54.742001 44.702999 58.459999 # C19
44 6 54.028999 43.036999 60.223000 # C19
45 6 38.998001 39.318001 0.134000 # C19
46 7 39.554001 41.301998 69.591003 # C20
47 7 40.153999 55.699001 59.838001 # C20
48 7 40.587002 57.306000 57.834999 # C20
49 7 38.269001 57.125999 58.876999 # C20
50 8 63.875999 60.764999 36.303001 # C24
51 8 65.601997 60.174999 38.137001 # C24
52 8 65.639000 62.431000 37.014999 # C24
53 8 66.768997 37.585999 68.500000 # C24
54 9 41.151001 66.973999 55.997002 # C25
55 9 42.112000 68.400002 57.882999 # C25
56 9 40.109001 66.792999 58.314999 # C25
57 11 55.584999 39.818001 62.687000 # C30
58 11 54.000000 41.821999 62.450001 # C30
59 11 54.639999 41.118999 64.816002 # C30
60 11 52.604000 43.956001 62.179001 # C30
61 12 51.264000 46.118999 61.849998 # C31
62 12 51.584000 45.192001 64.211998 # C31
63 12 53.883999 42.584000 66.907997 # C31
64 12 52.187000 44.473999 66.611000 # C31
65 12 53.125999 44.042999 69.017998 # C31
66 13 53.473999 52.042000 54.042999 # C36
67 13 52.819000 50.528000 55.944000 # C36
68 13 54.994999 50.148998 54.708000 # C36
69 13 52.056999 48.903999 57.717999 # C36
70 13 51.428001 47.362999 59.632999 # C36
71 13 53.448002 46.844002 58.172001 # C36
72 13 56.569000 48.301998 55.422001 # C36
73 13 55.738998 46.566002 57.067001 # C36
74 13 58.001999 46.262001 55.910000 # C36
75 13 44.959000 48.825001 68.513000 # C36
76 14 44.721001 46.820999 70.098000 # C37
77 14 47.088001 47.525002 69.459000 # C37
78 14 44.450001 44.687000 0.580000 # C37
79 14 44.120998 42.523998 1.920000 # C37
80 14 46.483002 43.452000 1.600000 # C37
81 14 49.179001 46.060001 70.214996 # C37
82 14 48.882999 44.169998 0.998000 # C37
83 14 51.289001 44.601002 0.059000 # C37
84 14 51.744999 46.185001 60.458000 # C37
85 14 53.063999 44.023998 60.771000 # C37
86 15 53.613998 45.562000 58.838001 # C38
87 15 54.382000 41.851002 61.000000 # C38
88 15 55.820000 39.743000 61.195000 # C38
89 15 55.976002 41.109001 59.062000 # C38
90 15 55.820999 45.209999 57.592999 # C38
91 15 56.894001 42.925999 57.542999 # C38
92 15 58.061001 44.875999 56.393002 # C38
93 15 41.904999 41.279999 1.756000 # C38
94 15 40.444000 41.799000 70.650002 # C38
95 15 39.988998 39.738998 1.128000 # C38
96 16 39.338001 42.077000 68.359001 # C39
97 16 38.215000 38.113998 0.366000 # C39
98 17 38.763000 60.549999 56.787998 # C40
99 17 37.959999 58.462002 58.236000 # C40
100 17 40.158001 58.433998 56.945999 # C40
101 17 37.330002 56.444000 59.852001 # C40
102 17 36.761002 54.414001 61.504002 # C40
103 17 39.216000 54.990002 60.764000 # C40
104 17 42.011002 56.976002 57.904999 # C40
105 17 41.613998 55.543999 60.018002 # C40
106 17 43.981998 55.924999 59.140999 # C40
107 21 67.707001 62.605000 40.333000 # C52
108 21 66.507004 62.938000 38.094002 # C52
109 21 66.556000 60.654999 39.167000 # C52
110 21 65.261002 63.290001 35.887001 # C52
111 21 63.327999 61.751999 35.337002 # C52
112 21 65.037003 58.837002 38.249001 # C52
113 21 63.098999 59.578999 36.654999 # C52
114 22 62.904999 57.471001 38.092999 # C53
115 22 63.990002 40.275002 68.191002 # C53
116 22 66.029999 38.841000 68.678001 # C53
117 22 67.876999 37.266998 69.390999 # C53
118 23 41.414001 68.175003 61.710999 # C54
119 23 40.179001 67.123001 59.738998 # C54
120 23 42.291000 68.556000 59.341999 # C54
121 23 39.220001 65.665001 57.886002 # C54
122 24 39.061001 63.549999 56.491001 # C55
123 24 40.508999 65.638000 55.688000 # C55
124 24 43.037998 69.109001 56.944000 # C55
125 24 42.125999 67.654999 55.058998 # C55
126 24 43.778000 69.684998 54.488998 # C55
127 25 42.457001 1.438000 42.730000 # C57
128 13 36.314999 36.599998 70.625000 # C36
129 1 17.542999 7.615000 29.087999 # C1
130 29 18.849001 13.129000 21.105000 # C7
131 37 11.359000 10.114000 35.640999 # C8
132 41 19.379999 7.910000 23.568001 # C9
133 2 3.376000 4.600000 34.334999 # C10
134 3 4.194000 21.190001 23.337999 # C12
135 10 29.617001 25.638000 1.653000 # C26
136 11 5.611000 31.996000 21.923000 # C30
137 18 19.219000 5.403000 27.867001 # C49
138 19 16.319000 9.601000 27.289000 # C50
139 20 17.562000 8.199000 32.077000 # C51
140 26 18.309000 15.451000 19.447001 # C67
141 27 16.812000 12.211000 23.010000 # C68
142 28 21.350000 11.622000 20.735001 # C69
143 30 10.139000 12.327000 33.965000 # C70
144 31 9.560000 8.128000 36.865002 # C71
145 32 14.348000 9.532000 35.623001 # C72
146 33 17.290001 9.757000 24.518999 # C73
147 34 19.858999 5.390000 24.924999 # C74
148 35 21.485001 8.887000 21.740999 # C75
149 36 5.281000 5.518000 36.372002 # C76
150 38 3.441000 23.655001 21.783001 # C80
151 39 2.290000 19.764000 25.187000 # C81
152 40 7.077000 20.701000 23.573000 # C82
153 3 31.445000 26.615999 3.758000 # C12
154 3 28.666000 27.485001 70.476997 # C12
155 3 28.261000 23.118000 2.132000 # C12
156 3 29.350000 3.622000 32.452000 # C12
157 3 5.846000 32.485001 24.805000 # C12
158 3 4.056000 29.531000 21.170000 # C12
159 3 7.461000 33.421001 20.018000 # C12
160 4 34.875999 1.718000 2.277000 # C13
161 5 16.778000 8.769000 29.671000 # C17
162 5 18.323000 6.746000 29.983000 # C17
163 5 17.697001 7.455000 27.601999 # C17
164 6 19.051001 11.884000 21.826000 # C19
165 6 19.857000 13.584000 20.143000 # C19
166 6 17.593000 13.868000 21.270000 # C19
167 6 11.943000 8.961000 36.407001 # C19
168 6 12.254000 10.984000 34.862000 # C19
169 6 9.873000 10.274000 35.487000 # C19
170 6 20.407000 6.990000 23.040001 # C19
171 6 19.285000 9.246000 23.004000 # C19
172 6 18.573000 7.580000 24.766001 # C19
173 6 3.542000 3.861000 35.591000 # C19
174 7 4.097000 5.845000 34.133999 # C20
175 7 4.697000 20.242001 24.381001 # C20
176 7 5.130000 21.849001 22.378000 # C20
177 7 2.812000 21.669001 23.420000 # C20
178 8 28.419001 25.308001 0.846000 # C24
179 8 30.145000 24.718000 2.680000 # C24
180 8 30.181999 26.974001 1.558000 # C24
181 8 31.312000 2.129000 33.042999 # C24
182 9 5.694000 31.517000 20.540001 # C25
183 9 6.655000 32.943001 22.426001 # C25
184 9 4.652000 31.337000 22.858999 # C25
185 11 20.128000 4.361000 27.231001 # C30
186 11 18.542999 6.366000 26.993000 # C30
187 11 19.183001 5.662000 29.358999 # C30
188 11 17.146999 8.499000 26.722000 # C30
189 12 15.807000 10.662000 26.393000 # C31
190 12 16.127001 9.735000 28.754999 # C31
191 12 18.427000 7.127000 31.451000 # C31
192 12 16.730000 9.017000 31.153999 # C31
193 12 17.669001 8.586000 33.561001 # C31
194 13 18.017000 16.584999 18.587000 # C36
195 13 17.362000 15.072000 20.487000 # C36
196 13 19.538000 14.692000 19.252001 # C36
197 13 16.600000 13.447000 22.261000 # C36
198 13 15.971000 11.906000 24.176001 # C36
199 13 17.990999 11.387000 22.715000 # C36
200 13 21.113001 12.845000 19.965000 # C36
201 13 20.282000 11.109000 21.610001 # C36
202 13 22.546000 10.805000 20.452999 # C36
203 13 9.502000 13.368000 33.056000 # C36
204 14 9.264000 11.364000 34.640999 # C37
205 14 11.631000 12.068000 34.001999 # C37
206 14 8.993000 9.230000 36.036999 # C37
207 14 8.665000 7.067000 37.376999 # C37
208 14 11.026000 7.995000 37.056999 # C37
209 14 13.723000 10.603000 34.757999 # C37
210 14 13.426000 8.713000 36.455002 # C37
211 14 15.832000 9.145000 35.515999 # C37
212 14 16.289000 10.728000 25.002001 # C37
213 14 17.607000 8.567000 25.313999 # C37
214 15 18.157000 10.105000 23.381001 # C38
215 15 18.924999 6.395000 25.542999 # C38
216 15 20.363001 4.287000 25.738001 # C38
217 15 20.518999 5.652000 23.605000 # C38
218 15 20.364000 9.753000 22.136000 # C38
219 15 21.437000 7.469000 22.086000 # C38
220 15 22.604000 9.420000 20.936001 # C38
221 15 6.448000 5.823000 37.213001 # C38
222 15 4.987000 6.342000 35.193001 # C38
223 15 4.533000 4.282000 36.584999 # C38
224 16 3.881000 6.620000 32.903000 # C39
225 16 2.758000 2.657000 35.823002 # C39
226 17 3.307000 25.093000 21.330999 # C40
227 17 2.503000 23.004999 22.778999 # C40
228 17 4.701000 22.976999 21.489000 # C40
229 17 1.874000 20.987000 24.395000 # C40
230 17 1.304000 18.957001 26.047001 # C40
231 17 3.759000 19.534000 25.306999 # C40
232 17 6.554000 21.518999 22.448999 # C40
233 17 6.157000 20.087000 24.561001 # C40
234 17 8.525000 20.468000 23.684000 # C40
235 21 32.250000 27.148001 4.876000 # C52
236 21 31.049999 27.481001 2.637000 # C52
237 21 31.099001 25.198000 3.711000 # C52
238 21 29.804001 27.833000 0.430000 # C52
239 21 27.872000 26.295000 70.793999 # C52
240 21 29.580999 23.379999 2.792000 # C52
241 21 27.642000 24.122999 1.198000 # C52
242 22 27.448000 22.014000 2.636000 # C53
243 22 28.533001 4.818000 32.734001 # C53
244 22 30.573000 3.384000 33.221001 # C53
245 22 32.419998 1.810000 33.933998 # C53
246 23 5.957000 32.717999 26.254000 # C54
247 23 4.722000 31.666000 24.282000 # C54
248 23 6.834000 33.098999 23.885000 # C54
249 23 3.763000 30.208000 22.429001 # C54
250 24 3.604000 28.093000 21.034000 # C55
251 24 5.053000 30.181000 20.231001 # C55
252 24 7.581000 33.652000 21.487000 # C55
253 24 6.669000 32.198002 19.601999 # C55
254 24 8.321000 34.228001 19.032000 # C55
255 25 7.000000 36.895000 7.273000 # C57
256 13 0.858000 1.143000 35.167999 # C36
257 1 53.369999 27.841999 29.087999 # C1
258 29 52.063999 22.327999 21.105000 # C7
259 37 59.555000 25.341999 35.640999 # C8
260 41 51.534000 27.547001 23.568001 # C9
261 2 67.538002 30.857000 34.334999 # C10
262 3 66.719002 14.267000 23.337999 # C12
263 10 41.297001 9.819000 1.653000 # C26
264 11 65.303001 3.461000 21.923000 # C30
265 18 51.695000 30.054001 27.867001 # C49
266 19 54.595001 25.855000 27.289000 # C50
267 20 53.352001 27.257999 32.077000 # C51
268 26 52.605000 20.006001 19.447001 # C67
269 27 54.102001 23.246000 23.010000 # C68
270 28 49.563999 23.834999 20.735001 # C69
271 30 60.775002 23.129999 33.965000 # C70
272 31 61.354000 27.329000 36.865002 # C71
273 32 56.564999 25.924999 35.623001 # C72
274 33 53.624001 25.700001 24.518999 # C73
275 34 51.055000 30.066999 24.924999 # C74
276 35 49.429001 26.570000 21.740999 # C75
277 36 65.633003 29.938999 36.372002 # C76
278 38 67.472000 11.802000 21.783001 # C80
279 39 68.624001 15.693000 25.187000 # C81
280 40 63.837002 14.756000 23.573000 # C82
281 3 39.469002 8.841000 3.758000 # C12
282 3 42.248001 7.972000 70.476997 # C12
283 3 42.653000 12.339000 2.132000 # C12
284 3 41.563999 31.834999 32.452000 # C12
285 3 65.068001 2.972000 24.805000 # C12
286 3 66.858002 5.926000 21.170000 # C12
287 3 63.452999 2.036000 20.018000 # C12
288 4 36.037998 33.738998 2.277000 # C13
289 5 54.136002 26.688000 29.671000 # C17
290 5 52.590000 28.711000 29.983000 # C17
291 5 53.216000 28.002001 27.601999 # C17
292 6 51.862999 23.573000 21.826000 # C19
293 6 51.056999 21.872999 20.143000 # C19
294 6 53.320000 21.589001 21.270000 # C19
295 6 58.971001 26.496000 36.407001 # C19
296 6 58.660000 24.473000 34.862000 # C19
297 6 61.040001 25.183001 35.487000 # C19
298 6 50.507000 28.466999 23.040001 # C19
299 6 51.627998 26.211000 23.004000 # C19
300 6 52.341000 27.877001 24.766001 # C19
301 6 67.372002 31.596001 35.591000 # C19
302 7 66.817001 29.612000 34.133999 # C20
303 7 66.216003 15.215000 24.381001 # C20
304 7 65.783997 13.608000 22.378000 # C20
305 7 68.101997 13.788000 23.420000 # C20
306 8 42.493999 10.149000 0.846000 # C24
307 8 40.768002 10.739000 2.680000 # C24
308 8 40.731998 8.483000 1.558000 # C24
309 8 39.602001 33.327999 33.042999 # C24
310 9 65.220001 3.940000 20.540001 # C25
311 9 64.259003 2.513000 22.426001 # C25
312 9 66.262001 4.120000 22.858999 # C25
313 11 50.785999 31.096001 27.231001 # C30
314 11 52.370998 29.091000 26.993000 # C30
315 11 51.730999 29.795000 29.358999 # C30
316 11 53.766998 26.958000 26.722000 # C30
317 12 55.106998 24.795000 26.393000 # C31
318 12 54.785999 25.722000 28.754999 # C31
319 12 52.487000 28.330000 31.451000 # C31
320 12 54.183998 26.440001 31.153999 # C31
321 12 53.244999 26.871000 33.561001 # C31
322 13 52.896999 18.872000 18.587000 # C36
323 13 53.551998 20.385000 20.487000 # C36
324 13 51.375000 20.764999 19.252001 # C36
325 13 54.313999 22.010000 22.261000 # C36
326 13 54.943001 23.551001 24.176001 # C36
327 13 52.923000 24.070000 22.715000 # C36
328 13 49.800999 22.612000 19.965000 # C36
329 13 50.632000 24.348000 21.610001 # C36
330 13 48.368000 24.652000 20.452999 # C36
331 13 61.411999 22.089001 33.056000 # C36
332 14 61.650002 24.093000 34.640999 # C37
333 14 59.283001 23.389000 34.001999 # C37
334 14 61.921001 26.226999 36.036999 # C37
335 14 62.249001 28.389999 37.376999 # C37
336 14 59.887001 27.462000 37.056999 # C37
337 14 57.191002 24.854000 34.757999 # C37
338 14 57.487999 26.743999 36.455002 # C37
339 14 55.082001 26.312000 35.515999 # C37
340 14 54.625000 24.728001 25.002001 # C37
341 14 53.306999 26.889999 25.313999 # C37
342 15 52.757000 25.351999 23.381001 # C38
343 15 51.988998 29.062000 25.542999 # C38
344 15 50.550999 31.170000 25.738001 # C38
345 15 50.395000 29.805000 23.605000 # C38
346 15 50.549999 25.704000 22.136000 # C38
347 15 49.476002 27.988001 22.086000 # C38
348 15 48.310001 26.037001 20.936001 # C38
349 15 64.466003 29.634001 37.213001 # C38
350 15 65.927002 29.115000 35.193001 # C38
351 15 66.380997 31.174999 36.584999 # C38
352 16 67.032997 28.837000 32.903000 # C39
353 16 68.154999 32.799999 35.823002 # C39
354 17 67.607002 10.364000 21.330999 # C40
355 17 68.411003 12.452000 22.778999 # C40
356 17 66.212997 12.480000 21.489000 # C40
357 17 69.040001 14.470000 24.395000 # C40
358 17 69.610001 16.500000 26.047001 # C40
359 17 67.154999 15.923000 25.306999 # C40
360 17 64.360001 13.937000 22.448999 # C40
361 17 64.757004 15.370000 24.561001 # C40
362 17 62.388000 14.989000 23.684000 # C40
363 21 38.664001 8.309000 4.876000 # C52
364 21 39.863998 7.976000 2.637000 # C52
365 21 39.813999 10.259000 3.711000 # C52
366 21 41.110001 7.624000 0.430000 # C52
367 21 43.042000 9.162000 70.793999 # C52
368 21 41.333000 12.076000 2.792000 # C52
369 21 43.271999 11.334000 1.198000 # C52
370 22 43.466000 13.442000 2.636000 # C53
371 22 42.381001 30.639000 32.734001 # C53
372 22 40.340000 32.071999 33.221001 # C53
373 22 38.493999 33.646999 33.933998 # C53
374 23 64.957001 2.738000 26.254000 # C54
375 23 66.192001 3.791000 24.282000 # C54
376 23 64.080002 2.358000 23.885000 # C54
377 23 67.151001 5.249000 22.429001 # C54
378 24 67.309998 7.364000 21.034000 # C55
379 24 65.861000 5.276000 20.231001 # C55
380 24 63.333000 1.805000 21.487000 # C55
381 24 64.245003 3.259000 19.601999 # C55
382 24 62.592999 1.229000 19.032000 # C55
383 25 63.912998 69.475998 7.273000 # C57
384 13 70.056000 34.313000 35.167999 # C36
385 1 17.913000 63.299000 64.544998 # C1
386 29 16.608000 57.785000 56.562000 # C7
387 37 24.098000 60.799000 0.184000 # C8
388 41 16.077000 63.004002 59.025002 # C9
389 2 32.081001 66.314003 69.792000 # C10
390 3 31.261999 49.723999 58.794998 # C12
391 10 5.840000 45.276001 37.110001 # C26
392 11 29.846001 38.917999 57.380001 # C30
393 18 16.238001 65.511002 63.324001 # C49
394 19 19.138000 61.312000 62.744999 # C50
395 20 17.895000 62.715000 67.533997 # C51
396 26 17.148001 55.463001 54.903999 # C67
397 27 18.645000 58.702999 58.466000 # C68
398 28 14.107000 59.292000 56.192001 # C69
399 30 25.318001 58.587002 69.421997 # C70
400 31 25.896999 62.785999 1.409000 # C71
401 32 21.108999 61.382000 0.166000 # C72
402 33 18.167000 61.157001 59.976002 # C73
403 34 15.598000 65.524002 60.382000 # C74
404 35 13.972000 62.026001 57.198002 # C75
405 36 30.176001 65.396004 0.915000 # C76
406 38 32.014999 47.258999 57.238998 # C80
407 39 33.167000 51.150002 60.644001 # C81
408 40 28.379999 50.213001 59.029999 # C82
409 3 4.012000 44.298000 39.215000 # C12
410 3 6.791000 43.429001 35.020000 # C12
411 3 7.196000 47.796001 37.589001 # C12
412 3 6.107000 67.292000 67.908997 # C12
413 3 29.611000 38.428001 60.262001 # C12
414 3 31.400999 41.382999 56.626999 # C12
415 3 27.996000 37.492001 55.474998 # C12
416 4 0.581000 69.195999 37.734001 # C13
417 5 18.679001 62.145000 65.127998 # C17
418 5 17.134001 64.167999 65.440002 # C17
419 5 17.760000 63.459000 63.058998 # C17
420 6 16.406000 59.029999 57.283001 # C19
421 6 15.600000 57.330002 55.599998 # C19
422 6 17.864000 57.046001 56.727001 # C19
423 6 23.514000 61.952000 0.950000 # C19
424 6 23.202999 59.930000 70.318001 # C19
425 6 25.583000 60.639999 0.030000 # C19
426 6 15.050000 63.924000 58.497002 # C19
427 6 16.172001 61.667999 58.459999 # C19
428 6 16.884001 63.334000 60.223000 # C19
429 6 31.915001 67.053001 0.134000 # C19
430 7 31.360001 65.068001 69.591003 # C20
431 7 30.760000 50.672001 59.838001 # C20
432 7 30.327000 49.064999 57.834999 # C20
433 7 32.645000 49.244999 58.876999 # C20
434 8 7.037000 45.605999 36.303001 # C24
435 8 5.312000 46.195999 38.137001 # C24
436 8 5.275000 43.939999 37.014999 # C24
437 8 4.145000 68.785004 68.500000 # C24
438 9 29.763000 39.396999 55.997002 # C25
439 9 28.802000 37.970001 57.882999 # C25
440 9 30.805000 39.577000 58.314999 # C25
441 11 15.329000 66.553001 62.687000 # C30
442 11 16.914000 64.547997 62.450001 # C30
443 11 16.274000 65.251999 64.816002 # C30
444 11 18.309999 62.414001 62.179001 # C30
445 12 19.650000 60.251999 61.849998 # C31
446 12 19.329000 61.179001 64.211998 # C31
447 12 17.030001 63.786999 66.907997 # C31
448 12 18.726999 61.896999 66.611000 # C31
449 12 17.788000 62.327999 69.017998 # C31
450 13 17.440001 54.328999 54.042999 # C36
451 13 18.094999 55.841999 55.944000 # C36
452 13 15.918000 56.222000 54.708000 # C36
453 13 18.857000 57.466999 57.717999 # C36
454 13 19.486000 59.007999 59.632999 # C36
455 13 17.466000 59.527000 58.172001 # C36
456 13 14.344000 58.068001 55.422001 # C36
457 13 15.175000 59.805000 57.067001 # C36
458 13 12.911000 60.109001 55.910000 # C36
459 13 25.955000 57.546001 68.513000 # C36
460 14 26.193001 59.549999 70.098000 # C37
461 14 23.826000 58.846001 69.459000 # C37
462 14 26.464001 61.683998 0.580000 # C37
463 14 26.792000 63.847000 1.920000 # C37
464 14 24.431000 62.918999 1.600000 # C37
465 14 21.733999 60.310001 70.214996 # C37
466 14 22.031000 62.201000 0.998000 # C37
467 14 19.625000 61.769001 0.059000 # C37
468 14 19.167999 60.185001 60.458000 # C37
469 14 17.850000 62.347000 60.771000 # C37
470 15 17.299999 60.808998 58.838001 # C38
471 15 16.532000 64.518997 61.000000 # C38
472 15 15.094000 66.626999 61.195000 # C38
473 15 14.938000 65.262001 59.062000 # C38
474 15 15.093000 61.160999 57.592999 # C38
475 15 14.019000 63.444000 57.542999 # C38
476 15 12.853000 61.493999 56.393002 # C38
477 15 29.009001 65.091003 1.756000 # C38
478 15 30.469999 64.571999 70.650002 # C38
479 15 30.924000 66.632004 1.128000 # C38
480 16 31.576000 64.293999 68.359001 # C39
481 16 32.698002 68.257004 0.366000 # C39
482 17 32.150002 45.820999 56.787998 # C40
483 17 32.953999 47.909000 58.236000 # C40
484 17 30.756001 47.937000 56.945999 # C40
485 17 33.583000 49.926998 59.852001 # C40
486 17 34.153000 51.957001 61.504002 # C40
487 17 31.698000 51.380001 60.764000 # C40
488 17 28.903000 49.394001 57.904999 # C40
489 17 29.299999 50.827000 60.018002 # C40
490 17 26.931000 50.445999 59.140999 # C40
491 21 3.207000 43.765999 40.333000 # C52
492 21 4.407000 43.432999 38.094002 # C52
493 21 4.357000 45.716000 39.167000 # C52
494 21 5.653000 43.081001 35.887001 # C52
495 21 7.585000 44.618999 35.337002 # C52
496 21 5.876000 47.533001 38.249001 # C52
497 21 7.815000 46.791000 36.654999 # C52
498 22 8.009000 48.898998 38.092999 # C53
499 22 6.924000 66.096001 68.191002 # C53
500 22 4.884000 67.528999 68.678001 # C53
501 22 3.037000 69.102997 69.390999 # C53
502 23 29.500000 38.195000 61.710999 # C54
503 23 30.735001 39.248001 59.738998 # C54
504 23 28.622999 37.814999 59.341999 # C54
505 23 31.694000 40.706001 57.886002 # C54
506 24 31.853001 42.820999 56.491001 # C55
507 24 30.403999 40.733002 55.688000 # C55
508 24 27.875999 37.262001 56.944000 # C55
509 24 28.788000 38.715000 55.058998 # C55
510 24 27.136000 36.685001 54.488998 # C55
511 25 28.455999 34.019001 42.730000 # C57
512 13 34.598999 69.769997 70.625000 # C36
513 1 17.913000 7.615000 41.826000 # C1
514 29 16.608000 13.129000 49.808998 # C7
515 37 24.098000 10.114000 35.272999 # C8
516 41 16.077000 7.910000 47.346001 # C9
517 2 32.081001 4.600000 36.577999 # C10
518 3 31.261999 21.190001 47.576000 # C12
519 10 5.840000 25.638000 69.261002 # C26
520 11 29.846001 31.996000 48.991001 # C30
521 18 16.238001 5.403000 43.046001 # C49
522 19 19.138000 9.601000 43.625000 # C50
523 20 17.895000 8.199000 38.837002 # C51
524 26 17.148001 15.451000 51.466999 # C67
525 27 18.645000 12.211000 47.903999 # C68
526 28 14.107000 11.622000 50.179001 # C69
527 30 25.318001 12.327000 36.948002 # C70
528 31 25.896999 8.128000 34.048000 # C71
529 32 21.108999 9.532000 35.291000 # C72
530 33 18.167000 9.757000 46.394001 # C73
531 34 15.598000 5.390000 45.988998 # C74
532 35 13.972000 8.887000 49.173000 # C75
533 36 30.176001 5.518000 34.542000 # C76
534 38 32.014999 23.655001 49.131001 # C80
535 39 33.167000 19.764000 45.726002 # C81
536 40 28.379999 20.701000 47.341000 # C82
537 3 4.012000 26.615999 67.155998 # C12
538 3 6.791000 27.485001 0.437000 # C12
539 3 7.196000 23.118000 68.781998 # C12
540 3 6.107000 3.622000 38.462002 # C12
541 3 29.611000 32.485001 46.109001 # C12
542 3 31.400999 29.531000 49.743999 # C12
543 3 27.996000 33.421001 50.895000 # C12
544 4 0.581000 1.718000 68.636002 # C13
545 5 18.679001 8.769000 41.243000 # C17
546 5 17.134001 6.746000 40.931000 # C17
547 5 17.760000 7.455000 43.312000 # C17
548 6 16.406000 11.884000 49.088001 # C19
549 6 15.600000 13.584000 50.770000 # C19
550 6 17.864000 13.868000 49.644001 # C19
551 6 23.514000 8.961000 34.507000 # C19
552 6 23.202999 10.984000 36.051998 # C19
553 6 25.583000 10.274000 35.426998 # C19
554 6 15.050000 6.990000 47.874001 # C19
555 6 16.172001 9.246000 47.910000 # C19
556 6 16.884001 7.580000 46.147999 # C19
557 6 31.915001 3.861000 35.323002 # C19
558 7 31.360001 5.845000 36.779999 # C20
559 7 30.760000 20.242001 46.533001 # C20
560 7 30.327000 21.849001 48.535000 # C20
561 7 32.645000 21.669001 47.493999 # C20
562 8 7.037000 25.308001 70.068001 # C24
563 8 5.312000 24.718000 68.233002 # C24
564 8 5.275000 26.974001 69.355003 # C24
565 8 4.145000 2.129000 37.870998 # C24
566 9 29.763000 31.517000 50.373001 # C25
567 9 28.802000 32.943001 48.487999 # C25
568 9 30.805000 31.337000 48.055000 # C25
569 11 15.329000 4.361000 43.682999 # C30
570 11 16.914000 6.366000 43.921001 # C30
571 11 16.274000 5.662000 41.554001 # C30
572 11 18.309999 8.499000 44.192001 # C30
573 12 19.650000 10.662000 44.521000 # C31
574 12 19.329000 9.735000 42.159000 # C31
575 12 17.030001 7.127000 39.463001 # C31
576 12 18.726999 9.017000 39.758999 # C31
577 12 17.788000 8.586000 37.353001 # C31
578 13 17.440001 16.584999 52.327000 # C36
579 13 18.094999 15.072000 50.426998 # C36
580 13 15.918000 14.692000 51.661999 # C36
581 13 18.857000 13.447000 48.653000 # C36
582 13 19.486000 11.906000 46.737999 # C36
583 13 17.466000 11.387000 48.198002 # C36
584 13 14.344000 12.845000 50.948002 # C36
585 13 15.175000 11.109000 49.304001 # C36
586 13 12.911000 10.805000 50.460999 # C36
587 13 25.955000 13.368000 37.856998 # C36
588 14 26.193001 11.364000 36.272999 # C37
589 14 23.826000 12.068000 36.911999 # C37
590 14 26.464001 9.230000 34.876999 # C37
591 14 26.792000 7.067000 33.536999 # C37
592 14 24.431000 7.995000 33.856998 # C37
593 14 21.733999 10.603000 36.155998 # C37
594 14 22.031000 8.713000 34.459000 # C37
595 14 19.625000 9.145000 35.397999 # C37
596 14 19.167999 10.728000 45.911999 # C37
597 14 17.850000 8.567000 45.599998 # C37
598 15 17.299999 10.105000 47.532001 # C38
599 15 16.532000 6.395000 45.369999 # C38
600 15 15.094000 4.287000 45.175999 # C38
601 15 14.938000 5.652000 47.308998 # C38
602 15 15.093000 9.753000 48.778000 # C38
603 15 14.019000 7.469000 48.827999 # C38
604 15 12.853000 9.420000 49.977001 # C38
605 15 29.009001 5.823000 33.701000 # C38
606 15 30.469999 6.342000 35.721001 # C38
607 15 30.924000 4.282000 34.328999 # C38
608 16 31.576000 6.620000 38.011002 # C39
609 16 32.698002 2.657000 35.091000 # C39
610 17 32.150002 25.093000 49.583000 # C40
611 17 32.953999 23.004999 48.134998 # C40
612 17 30.756001 22.976999 49.424000 # C40
613 17 33.583000 20.987000 46.519001 # C40
614 17 34.153000 18.957001 44.866001 # C40
615 17 31.698000 19.534000 45.606998 # C40
616 17 28.903000 21.518999 48.465000 # C40
617 17 29.299999 20.087000 46.353001 # C40
618 17 26.931000 20.468000 47.229000 # C40
619 21 3.207000 27.148001 66.037003 # C52
620 21 4.407000 27.481001 68.277000 # C52
621 21 4.357000 25.198000 67.203003 # C52
622 21 5.653000 27.833000 70.484001 # C52
623 21 7.585000 26.295000 0.120000 # C52
624 21 5.876000 23.379999 68.121002 # C52
625 21 7.815000 24.122999 69.716003 # C52
626 22 8.009000 22.014000 68.278000 # C53
627 22 6.924000 4.818000 38.180000 # C53
628 22 4.884000 3.384000 37.693001 # C53
629 22 3.037000 1.810000 36.979000 # C53
630 23 29.500000 32.717999 44.660000 # C54
631 23 30.735001 31.666000 46.631001 # C54
632 23 28.622999 33.098999 47.028000 # C54
633 23 31.694000 30.208000 48.484001 # C54
634 24 31.853001 28.093000 49.879002 # C55
635 24 30.403999 30.181000 50.682999 # C55
636 24 27.875999 33.652000 49.426998 # C55
637 24 28.788000 32.198002 51.312000 # C55
638 24 27.136000 34.228001 51.881001 # C55
639 25 28.455999 36.895000 63.640999 # C57
640 13 34.598999 1.143000 35.744999 # C36
641 1 53.369999 43.071999 6.369000 # C1
642 29 52.063999 48.585999 14.352000 # C7
643 37 59.555000 45.570999 70.730003 # C8
644 41 51.534000 43.367001 11.889000 # C9
645 2 67.538002 40.056999 1.122000 # C10
646 3 66.719002 56.646000 12.119000 # C12
647 10 41.297001 61.095001 33.804001 # C26
648 11 65.303001 67.453003 13.534000 # C30
649 18 51.695000 40.860001 7.589000 # C49
650 19 54.595001 45.057999 8.168000 # C50
651 20 53.352001 43.654999 3.380000 # C51
652 26 52.605000 50.908001 16.010000 # C67
653 27 54.102001 47.667000 12.447000 # C68
654 28 49.563999 47.078999 14.722000 # C69
655 30 60.775002 47.783001 1.492000 # C70
656 31 61.354000 43.584999 69.504997 # C71
657 32 56.564999 44.988998 70.748001 # C72
658 33 53.624001 45.214001 10.937000 # C73
659 34 51.055000 40.847000 10.532000 # C74
660 35 49.429001 44.344002 13.716000 # C75
661 36 65.633003 40.974998 69.999001 # C76
662 38 67.472000 59.112000 13.674000 # C80
663 39 68.624001 55.221001 10.269000 # C81
664 40 63.837002 56.158001 11.884000 # C82
665 3 39.469002 62.071999 31.698999 # C12
666 3 42.248001 62.942001 35.894001 # C12
667 3 42.653000 58.575001 33.325001 # C12
668 3 41.563999 39.078999 3.005000 # C12
669 3 65.068001 67.942001 10.652000 # C12
670 3 66.858002 64.987000 14.287000 # C12
671 3 63.452999 68.877998 15.438000 # C12
672 4 36.037998 37.174999 33.179001 # C13
673 5 54.136002 44.224998 5.786000 # C17
674 5 52.590000 42.202999 5.474000 # C17
675 5 53.216000 42.911999 7.855000 # C17