LAMMPS data file. CGCMM style. atom_style atomic generated by VMD/TopoTools v1.6 on Tue May 03 11:32:06 EDT 2016
 1440 atoms
 0 bonds
 0 angles
 0 dihedrals
 0 impropers
 5 atom types
 0 bond types
 0 angle types
 0 dihedral types
 0 improper types
 -0.579999 32.128001  xlo xhi
 -0.579999 32.128001  ylo yhi
 -0.579999 32.128001  zlo zhi

# Pair Coeffs
#
# 1  C
# 2  C10
# 3  C11
# 4  C12
# 5  C13

 Masses

 1 12.010700 # C
 2 12.010700 # C10
 3 12.010700 # C11
 4 12.010700 # C12
 5 12.010700 # C13

 Atoms

1 1 3.907000 2.338000 11.840000 # C
2 1 4.619000 3.599000 11.581000 # C
3 1 5.878000 3.604000 10.883000 # C
4 1 8.287000 7.296000 12.964000 # C
5 1 6.934000 5.914000 11.474000 # C
6 1 6.899000 4.623000 10.830000 # C
7 1 6.123000 2.402000 10.129000 # C
8 1 7.112000 2.365000 9.121000 # C
9 1 8.227000 6.239000 12.035000 # C
10 2 15.148000 21.754000 26.733999 # C10
11 3 15.194000 20.636000 27.586000 # C11
12 4 15.134000 9.029000 24.677000 # C12
13 1 20.261000 18.691999 28.194000 # C
14 1 20.973000 19.952999 27.934999 # C
15 1 22.232000 19.958000 27.237000 # C
16 1 24.639999 23.650000 29.318001 # C
17 1 23.288000 22.268000 27.827999 # C
18 1 23.253000 20.976000 27.184000 # C
19 1 22.476999 18.756001 26.483000 # C
20 1 23.466000 18.719000 25.475000 # C
21 1 24.580999 22.593000 28.389000 # C
22 2 31.502001 5.400000 10.380000 # C10
23 3 31.548000 4.282000 11.232000 # C11
24 4 31.488001 25.382999 8.323000 # C12
25 1 28.801001 30.370001 11.840000 # C
26 1 28.089001 29.108999 11.581000 # C
27 1 26.830000 29.104000 10.883000 # C
28 1 24.421000 25.412001 12.964000 # C
29 1 25.774000 26.794001 11.474000 # C
30 1 25.809000 28.084999 10.830000 # C
31 1 26.584999 30.306000 10.129000 # C
32 1 25.596001 30.343000 9.121000 # C
33 1 24.481001 26.469000 12.035000 # C
34 2 17.559999 10.954000 26.733999 # C10
35 3 17.514000 12.072000 27.586000 # C11
36 4 17.573000 23.679001 24.677000 # C12
37 1 12.447000 14.016000 28.194000 # C
38 1 11.735000 12.755000 27.934999 # C
39 1 10.476000 12.750000 27.237000 # C
40 1 8.067000 9.058000 29.318001 # C
41 1 9.420000 10.440000 27.827999 # C
42 1 9.455000 11.731000 27.184000 # C
43 1 10.231000 13.952000 26.483000 # C
44 1 9.242000 13.989000 25.475000 # C
45 1 8.127000 10.115000 28.389000 # C
46 2 1.206000 27.308001 10.380000 # C10
47 3 1.160000 28.426001 11.232000 # C11
48 4 1.220000 7.325000 8.323000 # C12
49 1 28.801001 2.338000 20.868000 # C
50 1 28.089001 3.599000 21.127001 # C
51 1 26.830000 3.604000 21.825001 # C
52 1 24.421000 7.296000 19.743000 # C
53 1 25.774000 5.914000 21.233999 # C
54 1 25.809000 4.623000 21.878000 # C
55 1 26.584999 2.402000 22.579000 # C
56 1 25.596001 2.365000 23.587000 # C
57 1 24.481001 6.239000 20.673000 # C
58 2 17.559999 21.754000 5.974000 # C10
59 3 17.514000 20.636000 5.122000 # C11
60 4 17.573000 9.029000 8.031000 # C12
61 1 12.447000 18.691999 4.514000 # C
62 1 11.735000 19.952999 4.773000 # C
63 1 10.476000 19.958000 5.471000 # C
64 1 8.067000 23.650000 3.389000 # C
65 1 9.420000 22.268000 4.880000 # C
66 1 9.455000 20.976000 5.524000 # C
67 1 10.231000 18.756001 6.225000 # C
68 1 9.242000 18.719000 7.233000 # C
69 1 8.127000 22.593000 4.319000 # C
70 2 1.206000 5.400000 22.327999 # C10
71 3 1.160000 4.282000 21.476000 # C11
72 4 1.220000 25.382999 24.385000 # C12
73 1 3.907000 30.370001 20.868000 # C
74 1 4.619000 29.108999 21.127001 # C
75 1 5.878000 29.104000 21.825001 # C
76 1 8.287000 25.412001 19.743000 # C
77 1 6.934000 26.794001 21.233999 # C
78 1 6.899000 28.084999 21.878000 # C
79 1 6.123000 30.306000 22.579000 # C
80 1 7.112000 30.343000 23.587000 # C
81 1 8.227000 26.469000 20.673000 # C
82 2 15.148000 10.954000 5.974000 # C10
83 3 15.194000 12.072000 5.122000 # C11
84 4 15.134000 23.679001 8.031000 # C12
85 1 20.261000 14.016000 4.514000 # C
86 1 20.973000 12.755000 4.773000 # C
87 1 22.232000 12.750000 5.471000 # C
88 1 24.639999 9.058000 3.389000 # C
89 1 23.288000 10.440000 4.880000 # C
90 1 23.253000 11.731000 5.524000 # C
91 1 22.476999 13.952000 6.225000 # C
92 1 23.466000 13.989000 7.233000 # C
93 1 24.580999 10.115000 4.319000 # C
94 2 31.502001 27.308001 22.327999 # C10
95 3 31.548000 28.426001 21.476000 # C11
96 4 31.488001 7.325000 24.385000 # C12
97 1 11.840000 3.907000 2.338000 # C
98 1 11.581000 4.619000 3.599000 # C
99 1 10.883000 5.878000 3.604000 # C
100 1 12.964000 8.287000 7.296000 # C
101 1 11.474000 6.934000 5.914000 # C
102 1 10.830000 6.899000 4.623000 # C
103 1 10.129000 6.123000 2.402000 # C
104 1 9.121000 7.112000 2.365000 # C
105 1 12.035000 8.227000 6.239000 # C
106 2 26.733999 15.148000 21.754000 # C10
107 3 27.586000 15.194000 20.636000 # C11
108 4 24.677000 15.134000 9.029000 # C12
109 1 28.194000 20.261000 18.691999 # C
110 1 27.934999 20.973000 19.952999 # C
111 1 27.237000 22.232000 19.958000 # C
112 1 29.318001 24.639999 23.650000 # C
113 1 27.827999 23.288000 22.268000 # C
114 1 27.184000 23.253000 20.976000 # C
115 1 26.483000 22.476999 18.756001 # C
116 1 25.475000 23.466000 18.719000 # C
117 1 28.389000 24.580999 22.593000 # C
118 2 10.380000 31.502001 5.400000 # C10
119 3 11.232000 31.548000 4.282000 # C11
120 4 8.323000 31.488001 25.382999 # C12
121 1 11.840000 28.801001 30.370001 # C
122 1 11.581000 28.089001 29.108999 # C
123 1 10.883000 26.830000 29.104000 # C
124 1 12.964000 24.421000 25.412001 # C
125 1 11.474000 25.774000 26.794001 # C
126 1 10.830000 25.809000 28.084999 # C
127 1 10.129000 26.584999 30.306000 # C
128 1 9.121000 25.596001 30.343000 # C
129 1 12.035000 24.481001 26.469000 # C
130 2 26.733999 17.559999 10.954000 # C10
131 3 27.586000 17.514000 12.072000 # C11
132 4 24.677000 17.573000 23.679001 # C12
133 1 28.194000 12.447000 14.016000 # C
134 1 27.934999 11.735000 12.755000 # C
135 1 27.237000 10.476000 12.750000 # C
136 1 29.318001 8.067000 9.058000 # C
137 1 27.827999 9.420000 10.440000 # C
138 1 27.184000 9.455000 11.731000 # C
139 1 26.483000 10.231000 13.952000 # C
140 1 25.475000 9.242000 13.989000 # C
141 1 28.389000 8.127000 10.115000 # C
142 2 10.380000 1.206000 27.308001 # C10
143 3 11.232000 1.160000 28.426001 # C11
144 4 8.323000 1.220000 7.325000 # C12
145 1 20.868000 28.801001 2.338000 # C
146 1 21.127001 28.089001 3.599000 # C
147 1 21.825001 26.830000 3.604000 # C
148 1 19.743000 24.421000 7.296000 # C
149 1 21.233999 25.774000 5.914000 # C
150 1 21.878000 25.809000 4.623000 # C
151 1 22.579000 26.584999 2.402000 # C
152 1 23.587000 25.596001 2.365000 # C
153 1 20.673000 24.481001 6.239000 # C
154 2 5.974000 17.559999 21.754000 # C10
155 3 5.122000 17.514000 20.636000 # C11
156 4 8.031000 17.573000 9.029000 # C12
157 1 4.514000 12.447000 18.691999 # C
158 1 4.773000 11.735000 19.952999 # C
159 1 5.471000 10.476000 19.958000 # C
160 1 3.389000 8.067000 23.650000 # C
161 1 4.880000 9.420000 22.268000 # C
162 1 5.524000 9.455000 20.976000 # C
163 1 6.225000 10.231000 18.756001 # C
164 1 7.233000 9.242000 18.719000 # C
165 1 4.319000 8.127000 22.593000 # C
166 2 22.327999 1.206000 5.400000 # C10
167 3 21.476000 1.160000 4.282000 # C11
168 4 24.385000 1.220000 25.382999 # C12
169 1 20.868000 3.907000 30.370001 # C
170 1 21.127001 4.619000 29.108999 # C
171 1 21.825001 5.878000 29.104000 # C
172 1 19.743000 8.287000 25.412001 # C
173 1 21.233999 6.934000 26.794001 # C
174 1 21.878000 6.899000 28.084999 # C
175 1 22.579000 6.123000 30.306000 # C
176 1 23.587000 7.112000 30.343000 # C
177 1 20.673000 8.227000 26.469000 # C
178 2 5.974000 15.148000 10.954000 # C10
179 3 5.122000 15.194000 12.072000 # C11
180 4 8.031000 15.134000 23.679001 # C12
181 1 4.514000 20.261000 14.016000 # C
182 1 4.773000 20.973000 12.755000 # C
183 1 5.471000 22.232000 12.750000 # C
184 1 3.389000 24.639999 9.058000 # C
185 1 4.880000 23.288000 10.440000 # C
186 1 5.524000 23.253000 11.731000 # C
187 1 6.225000 22.476999 13.952000 # C
188 1 7.233000 23.466000 13.989000 # C
189 1 4.319000 24.580999 10.115000 # C
190 2 22.327999 31.502001 27.308001 # C10
191 3 21.476000 31.548000 28.426001 # C11
192 4 24.385000 31.488001 7.325000 # C12
193 1 2.338000 11.840000 3.907000 # C
194 1 3.599000 11.581000 4.619000 # C
195 1 3.604000 10.883000 5.878000 # C
196 1 7.296000 12.964000 8.287000 # C
197 1 5.914000 11.474000 6.934000 # C
198 1 4.623000 10.830000 6.899000 # C
199 1 2.402000 10.129000 6.123000 # C
200 1 2.365000 9.121000 7.112000 # C
201 1 6.239000 12.035000 8.227000 # C
202 2 21.754000 26.733999 15.148000 # C10
203 3 20.636000 27.586000 15.194000 # C11
204 4 9.029000 24.677000 15.134000 # C12
205 1 18.691999 28.194000 20.261000 # C
206 1 19.952999 27.934999 20.973000 # C
207 1 19.958000 27.237000 22.232000 # C
208 1 23.650000 29.318001 24.639999 # C
209 1 22.268000 27.827999 23.288000 # C
210 1 20.976000 27.184000 23.253000 # C
211 1 18.756001 26.483000 22.476999 # C
212 1 18.719000 25.475000 23.466000 # C
213 1 22.593000 28.389000 24.580999 # C
214 2 5.400000 10.380000 31.502001 # C10
215 3 4.282000 11.232000 31.548000 # C11
216 4 25.382999 8.323000 31.488001 # C12
217 1 30.370001 11.840000 28.801001 # C
218 1 29.108999 11.581000 28.089001 # C
219 1 29.104000 10.883000 26.830000 # C
220 1 25.412001 12.964000 24.421000 # C
221 1 26.794001 11.474000 25.774000 # C
222 1 28.084999 10.830000 25.809000 # C
223 1 30.306000 10.129000 26.584999 # C
224 1 30.343000 9.121000 25.596001 # C
225 1 26.469000 12.035000 24.481001 # C
226 2 10.954000 26.733999 17.559999 # C10
227 3 12.072000 27.586000 17.514000 # C11
228 4 23.679001 24.677000 17.573000 # C12
229 1 14.016000 28.194000 12.447000 # C
230 1 12.755000 27.934999 11.735000 # C
231 1 12.750000 27.237000 10.476000 # C
232 1 9.058000 29.318001 8.067000 # C
233 1 10.440000 27.827999 9.420000 # C
234 1 11.731000 27.184000 9.455000 # C
235 1 13.952000 26.483000 10.231000 # C
236 1 13.989000 25.475000 9.242000 # C
237 1 10.115000 28.389000 8.127000 # C
238 2 27.308001 10.380000 1.206000 # C10
239 3 28.426001 11.232000 1.160000 # C11
240 4 7.325000 8.323000 1.220000 # C12
241 1 2.338000 20.868000 28.801001 # C
242 1 3.599000 21.127001 28.089001 # C
243 1 3.604000 21.825001 26.830000 # C
244 1 7.296000 19.743000 24.421000 # C
245 1 5.914000 21.233999 25.774000 # C
246 1 4.623000 21.878000 25.809000 # C
247 1 2.402000 22.579000 26.584999 # C
248 1 2.365000 23.587000 25.596001 # C
249 1 6.239000 20.673000 24.481001 # C
250 2 21.754000 5.974000 17.559999 # C10
251 3 20.636000 5.122000 17.514000 # C11
252 4 9.029000 8.031000 17.573000 # C12
253 1 18.691999 4.514000 12.447000 # C
254 1 19.952999 4.773000 11.735000 # C
255 1 19.958000 5.471000 10.476000 # C
256 1 23.650000 3.389000 8.067000 # C
257 1 22.268000 4.880000 9.420000 # C
258 1 20.976000 5.524000 9.455000 # C
259 1 18.756001 6.225000 10.231000 # C
260 1 18.719000 7.233000 9.242000 # C
261 1 22.593000 4.319000 8.127000 # C
262 2 5.400000 22.327999 1.206000 # C10
263 3 4.282000 21.476000 1.160000 # C11
264 4 25.382999 24.385000 1.220000 # C12
265 1 30.370001 20.868000 3.907000 # C
266 1 29.108999 21.127001 4.619000 # C
267 1 29.104000 21.825001 5.878000 # C
268 1 25.412001 19.743000 8.287000 # C
269 1 26.794001 21.233999 6.934000 # C
270 1 28.084999 21.878000 6.899000 # C
271 1 30.306000 22.579000 6.123000 # C
272 1 30.343000 23.587000 7.112000 # C
273 1 26.469000 20.673000 8.227000 # C
274 2 10.954000 5.974000 15.148000 # C10
275 3 12.072000 5.122000 15.194000 # C11
276 4 23.679001 8.031000 15.134000 # C12
277 1 14.016000 4.514000 20.261000 # C
278 1 12.755000 4.773000 20.973000 # C
279 1 12.750000 5.471000 22.232000 # C
280 1 9.058000 3.389000 24.639999 # C
281 1 10.440000 4.880000 23.288000 # C
282 1 11.731000 5.524000 23.253000 # C
283 1 13.952000 6.225000 22.476999 # C
284 1 13.989000 7.233000 23.466000 # C
285 1 10.115000 4.319000 24.580999 # C
286 2 27.308001 22.327999 31.502001 # C10
287 3 28.426001 21.476000 31.548000 # C11
288 4 7.325000 24.385000 31.488001 # C12
289 1 2.338000 3.907000 20.868000 # C
290 1 3.599000 4.619000 21.127001 # C
291 1 3.604000 5.878000 21.825001 # C
292 1 7.296000 8.287000 19.743000 # C
293 1 5.914000 6.934000 21.233999 # C
294 1 4.623000 6.899000 21.878000 # C
295 1 2.402000 6.123000 22.579000 # C
296 1 2.365000 7.112000 23.587000 # C
297 1 6.239000 8.227000 20.673000 # C
298 2 21.754000 15.148000 5.974000 # C10
299 3 20.636000 15.194000 5.122000 # C11
300 4 9.029000 15.134000 8.031000 # C12
301 1 18.691999 20.261000 4.514000 # C
302 1 19.952999 20.973000 4.773000 # C
303 1 19.958000 22.232000 5.471000 # C
304 1 23.650000 24.639999 3.389000 # C
305 1 22.268000 23.288000 4.880000 # C
306 1 20.976000 23.253000 5.524000 # C
307 1 18.756001 22.476999 6.225000 # C
308 1 18.719000 23.466000 7.233000 # C
309 1 22.593000 24.580999 4.319000 # C
310 2 5.400000 31.502001 22.327999 # C10
311 3 4.282000 31.548000 21.476000 # C11
312 4 25.382999 31.488001 24.385000 # C12
313 1 30.370001 28.801001 20.868000 # C
314 1 29.108999 28.089001 21.127001 # C
315 1 29.104000 26.830000 21.825001 # C
316 1 25.412001 24.421000 19.743000 # C
317 1 26.794001 25.774000 21.233999 # C
318 1 28.084999 25.809000 21.878000 # C
319 1 30.306000 26.584999 22.579000 # C
320 1 30.343000 25.596001 23.587000 # C
321 1 26.469000 24.481001 20.673000 # C
322 2 10.954000 17.559999 5.974000 # C10
323 3 12.072000 17.514000 5.122000 # C11
324 4 23.679001 17.573000 8.031000 # C12
325 1 14.016000 12.447000 4.514000 # C
326 1 12.755000 11.735000 4.773000 # C
327 1 12.750000 10.476000 5.471000 # C
328 1 9.058000 8.067000 3.389000 # C
329 1 10.440000 9.420000 4.880000 # C
330 1 11.731000 9.455000 5.524000 # C
331 1 13.952000 10.231000 6.225000 # C
332 1 13.989000 9.242000 7.233000 # C
333 1 10.115000 8.127000 4.319000 # C
334 2 27.308001 1.206000 22.327999 # C10
335 3 28.426001 1.160000 21.476000 # C11
336 4 7.325000 1.220000 24.385000 # C12
337 1 2.338000 28.801001 11.840000 # C
338 1 3.599000 28.089001 11.581000 # C
339 1 3.604000 26.830000 10.883000 # C
340 1 7.296000 24.421000 12.964000 # C
341 1 5.914000 25.774000 11.474000 # C
342 1 4.623000 25.809000 10.830000 # C
343 1 2.402000 26.584999 10.129000 # C
344 1 2.365000 25.596001 9.121000 # C
345 1 6.239000 24.481001 12.035000 # C
346 2 21.754000 17.559999 26.733999 # C10
347 3 20.636000 17.514000 27.586000 # C11
348 4 9.029000 17.573000 24.677000 # C12
349 1 18.691999 12.447000 28.194000 # C
350 1 19.952999 11.735000 27.934999 # C
351 1 19.958000 10.476000 27.237000 # C
352 1 23.650000 8.067000 29.318001 # C
353 1 22.268000 9.420000 27.827999 # C
354 1 20.976000 9.455000 27.184000 # C
355 1 18.756001 10.231000 26.483000 # C
356 1 18.719000 9.242000 25.475000 # C
357 1 22.593000 8.127000 28.389000 # C
358 2 5.400000 1.206000 10.380000 # C10
359 3 4.282000 1.160000 11.232000 # C11
360 4 25.382999 1.220000 8.323000 # C12
361 1 30.370001 3.907000 11.840000 # C
362 1 29.108999 4.619000 11.581000 # C
363 1 29.104000 5.878000 10.883000 # C
364 1 25.412001 8.287000 12.964000 # C
365 1 26.794001 6.934000 11.474000 # C
366 1 28.084999 6.899000 10.830000 # C
367 1 30.306000 6.123000 10.129000 # C
368 1 30.343000 7.112000 9.121000 # C
369 1 26.469000 8.227000 12.035000 # C
370 2 10.954000 15.148000 26.733999 # C10
371 3 12.072000 15.194000 27.586000 # C11
372 4 23.679001 15.134000 24.677000 # C12
373 1 14.016000 20.261000 28.194000 # C
374 1 12.755000 20.973000 27.934999 # C
375 1 12.750000 22.232000 27.237000 # C
376 1 9.058000 24.639999 29.318001 # C
377 1 10.440000 23.288000 27.827999 # C
378 1 11.731000 23.253000 27.184000 # C
379 1 13.952000 22.476999 26.483000 # C
380 1 13.989000 23.466000 25.475000 # C
381 1 10.115000 24.580999 28.389000 # C
382 2 27.308001 31.502001 10.380000 # C10
383 3 28.426001 31.548000 11.232000 # C11
384 4 7.325000 31.488001 8.323000 # C12
385 1 3.907000 11.840000 30.370001 # C
386 1 4.619000 11.581000 29.108999 # C
387 1 5.878000 10.883000 29.104000 # C
388 1 8.287000 12.964000 25.412001 # C
389 1 6.934000 11.474000 26.794001 # C
390 1 6.899000 10.830000 28.084999 # C
391 1 6.123000 10.129000 30.306000 # C
392 1 7.112000 9.121000 30.343000 # C
393 1 8.227000 12.035000 26.469000 # C
394 2 15.148000 26.733999 10.954000 # C10
395 3 15.194000 27.586000 12.072000 # C11
396 4 15.134000 24.677000 23.679001 # C12
397 1 20.261000 28.194000 14.016000 # C
398 1 20.973000 27.934999 12.755000 # C
399 1 22.232000 27.237000 12.750000 # C
400 1 24.639999 29.318001 9.058000 # C
401 1 23.288000 27.827999 10.440000 # C
402 1 23.253000 27.184000 11.731000 # C
403 1 22.476999 26.483000 13.952000 # C
404 1 23.466000 25.475000 13.989000 # C
405 1 24.580999 28.389000 10.115000 # C
406 2 31.502001 10.380000 27.308001 # C10
407 3 31.548000 11.232000 28.426001 # C11
408 4 31.488001 8.323000 7.325000 # C12
409 1 28.801001 11.840000 2.338000 # C
410 1 28.089001 11.581000 3.599000 # C
411 1 26.830000 10.883000 3.604000 # C
412 1 24.421000 12.964000 7.296000 # C
413 1 25.774000 11.474000 5.914000 # C
414 1 25.809000 10.830000 4.623000 # C
415 1 26.584999 10.129000 2.402000 # C
416 1 25.596001 9.121000 2.365000 # C
417 1 24.481001 12.035000 6.239000 # C
418 2 17.559999 26.733999 21.754000 # C10
419 3 17.514000 27.586000 20.636000 # C11
420 4 17.573000 24.677000 9.029000 # C12
421 1 12.447000 28.194000 18.691999 # C
422 1 11.735000 27.934999 19.952999 # C
423 1 10.476000 27.237000 19.958000 # C
424 1 8.067000 29.318001 23.650000 # C
425 1 9.420000 27.827999 22.268000 # C
426 1 9.455000 27.184000 20.976000 # C
427 1 10.231000 26.483000 18.756001 # C
428 1 9.242000 25.475000 18.719000 # C
429 1 8.127000 28.389000 22.593000 # C
430 2 1.206000 10.380000 5.400000 # C10
431 3 1.160000 11.232000 4.282000 # C11
432 4 1.220000 8.323000 25.382999 # C12
433 1 28.801001 20.868000 30.370001 # C
434 1 28.089001 21.127001 29.108999 # C
435 1 26.830000 21.825001 29.104000 # C
436 1 24.421000 19.743000 25.412001 # C
437 1 25.774000 21.233999 26.794001 # C
438 1 25.809000 21.878000 28.084999 # C
439 1 26.584999 22.579000 30.306000 # C
440 1 25.596001 23.587000 30.343000 # C
441 1 24.481001 20.673000 26.469000 # C
442 2 17.559999 5.974000 10.954000 # C10
443 3 17.514000 5.122000 12.072000 # C11
444 4 17.573000 8.031000 23.679001 # C12
445 1 12.447000 4.514000 14.016000 # C
446 1 11.735000 4.773000 12.755000 # C
447 1 10.476000 5.471000 12.750000 # C
448 1 8.067000 3.389000 9.058000 # C
449 1 9.420000 4.880000 10.440000 # C
450 1 9.455000 5.524000 11.731000 # C
451 1 10.231000 6.225000 13.952000 # C
452 1 9.242000 7.233000 13.989000 # C
453 1 8.127000 4.319000 10.115000 # C
454 2 1.206000 22.327999 27.308001 # C10
455 3 1.160000 21.476000 28.426001 # C11
456 4 1.220000 24.385000 7.325000 # C12
457 1 3.907000 20.868000 2.338000 # C
458 1 4.619000 21.127001 3.599000 # C
459 1 5.878000 21.825001 3.604000 # C
460 1 8.287000 19.743000 7.296000 # C
461 1 6.934000 21.233999 5.914000 # C
462 1 6.899000 21.878000 4.623000 # C
463 1 6.123000 22.579000 2.402000 # C
464 1 7.112000 23.587000 2.365000 # C
465 1 8.227000 20.673000 6.239000 # C
466 2 15.148000 5.974000 21.754000 # C10
467 3 15.194000 5.122000 20.636000 # C11
468 4 15.134000 8.031000 9.029000 # C12
469 1 20.261000 4.514000 18.691999 # C
470 1 20.973000 4.773000 19.952999 # C
471 1 22.232000 5.471000 19.958000 # C
472 1 24.639999 3.389000 23.650000 # C
473 1 23.288000 4.880000 22.268000 # C
474 1 23.253000 5.524000 20.976000 # C
475 1 22.476999 6.225000 18.756001 # C
476 1 23.466000 7.233000 18.719000 # C
477 1 24.580999 4.319000 22.593000 # C
478 2 31.502001 22.327999 5.400000 # C10
479 3 31.548000 21.476000 4.282000 # C11
480 4 31.488001 24.385000 25.382999 # C12
481 1 11.840000 2.338000 28.801001 # C
482 1 11.581000 3.599000 28.089001 # C
483 1 10.883000 3.604000 26.830000 # C
484 1 12.964000 7.296000 24.421000 # C
485 1 11.474000 5.914000 25.774000 # C
486 1 10.830000 4.623000 25.809000 # C
487 1 10.129000 2.402000 26.584999 # C
488 1 9.121000 2.365000 25.596001 # C
489 1 12.035000 6.239000 24.481001 # C
490 2 26.733999 21.754000 17.559999 # C10
491 3 27.586000 20.636000 17.514000 # C11
492 4 24.677000 9.029000 17.573000 # C12
493 1 28.194000 18.691999 12.447000 # C
494 1 27.934999 19.952999 11.735000 # C
495 1 27.237000 19.958000 10.476000 # C
496 1 29.318001 23.650000 8.067000 # C
497 1 27.827999 22.268000 9.420000 # C
498 1 27.184000 20.976000 9.455000 # C
499 1 26.483000 18.756001 10.231000 # C
500 1 25.475000 18.719000 9.242000 # C
501 1 28.389000 22.593000 8.127000 # C
502 2 10.380000 5.400000 1.206000 # C10
503 3 11.232000 4.282000 1.160000 # C11
504 4 8.323000 25.382999 1.220000 # C12
505 1 11.840000 30.370001 3.907000 # C
506 1 11.581000 29.108999 4.619000 # C
507 1 10.883000 29.104000 5.878000 # C
508 1 12.964000 25.412001 8.287000 # C
509 1 11.474000 26.794001 6.934000 # C
510 1 10.830000 28.084999 6.899000 # C
511 1 10.129000 30.306000 6.123000 # C
512 1 9.121000 30.343000 7.112000 # C
513 1 12.035000 26.469000 8.227000 # C
514 2 26.733999 10.954000 15.148000 # C10
515 3 27.586000 12.072000 15.194000 # C11
516 4 24.677000 23.679001 15.134000 # C12
517 1 28.194000 14.016000 20.261000 # C
518 1 27.934999 12.755000 20.973000 # C
519 1 27.237000 12.750000 22.232000 # C
520 1 29.318001 9.058000 24.639999 # C
521 1 27.827999 10.440000 23.288000 # C
522 1 27.184000 11.731000 23.253000 # C
523 1 26.483000 13.952000 22.476999 # C
524 1 25.475000 13.989000 23.466000 # C
525 1 28.389000 10.115000 24.580999 # C
526 2 10.380000 27.308001 31.502001 # C10
527 3 11.232000 28.426001 31.548000 # C11
528 4 8.323000 7.325000 31.488001 # C12
529 1 20.868000 2.338000 3.907000 # C
530 1 21.127001 3.599000 4.619000 # C
531 1 21.825001 3.604000 5.878000 # C
532 1 19.743000 7.296000 8.287000 # C
533 1 21.233999 5.914000 6.934000 # C
534 1 21.878000 4.623000 6.899000 # C
535 1 22.579000 2.402000 6.123000 # C
536 1 23.587000 2.365000 7.112000 # C
537 1 20.673000 6.239000 8.227000 # C
538 2 5.974000 21.754000 15.148000 # C10
539 3 5.122000 20.636000 15.194000 # C11
540 4 8.031000 9.029000 15.134000 # C12
541 1 4.514000 18.691999 20.261000 # C
542 1 4.773000 19.952999 20.973000 # C
543 1 5.471000 19.958000 22.232000 # C
544 1 3.389000 23.650000 24.639999 # C
545 1 4.880000 22.268000 23.288000 # C
546 1 5.524000 20.976000 23.253000 # C
547 1 6.225000 18.756001 22.476999 # C
548 1 7.233000 18.719000 23.466000 # C
549 1 4.319000 22.593000 24.580999 # C
550 2 22.327999 5.400000 31.502001 # C10
551 3 21.476000 4.282000 31.548000 # C11
552 4 24.385000 25.382999 31.488001 # C12
553 1 20.868000 30.370001 28.801001 # C
554 1 21.127001 29.108999 28.089001 # C
555 1 21.825001 29.104000 26.830000 # C
556 1 19.743000 25.412001 24.421000 # C
557 1 21.233999 26.794001 25.774000 # C
558 1 21.878000 28.084999 25.809000 # C
559 1 22.579000 30.306000 26.584999 # C
560 1 23.587000 30.343000 25.596001 # C
561 1 20.673000 26.469000 24.481001 # C
562 2 5.974000 10.954000 17.559999 # C10
563 3 5.122000 12.072000 17.514000 # C11
564 4 8.031000 23.679001 17.573000 # C12
565 1 4.514000 14.016000 12.447000 # C
566 1 4.773000 12.755000 11.735000 # C
567 1 5.471000 12.750000 10.476000 # C
568 1 3.389000 9.058000 8.067000 # C
569 1 4.880000 10.440000 9.420000 # C
570 1 5.524000 11.731000 9.455000 # C
571 1 6.225000 13.952000 10.231000 # C
572 1 7.233000 13.989000 9.242000 # C
573 1 4.319000 10.115000 8.127000 # C
574 2 22.327999 27.308001 1.206000 # C10
575 3 21.476000 28.426001 1.160000 # C11
576 4 24.385000 7.325000 1.220000 # C12
577 1 28.801001 30.370001 20.868000 # C
578 1 28.089001 29.108999 21.127001 # C
579 1 26.830000 29.104000 21.825001 # C
580 1 24.421000 25.412001 19.743000 # C
581 1 25.774000 26.794001 21.233999 # C
582 1 25.809000 28.084999 21.878000 # C
583 1 26.584999 30.306000 22.579000 # C
584 1 25.596001 30.343000 23.587000 # C
585 1 24.481001 26.469000 20.673000 # C
586 2 17.559999 10.954000 5.974000 # C10
587 3 17.514000 12.072000 5.122000 # C11
588 4 17.573000 23.679001 8.031000 # C12
589 1 12.447000 14.016000 4.514000 # C
590 1 11.735000 12.755000 4.773000 # C
591 1 10.476000 12.750000 5.471000 # C
592 1 8.067000 9.058000 3.389000 # C
593 1 9.420000 10.440000 4.880000 # C
594 1 9.455000 11.731000 5.524000 # C
595 1 10.231000 13.952000 6.225000 # C
596 1 9.242000 13.989000 7.233000 # C
597 1 8.127000 10.115000 4.319000 # C
598 2 1.206000 27.308001 22.327999 # C10
599 3 1.160000 28.426001 21.476000 # C11
600 4 1.220000 7.325000 24.385000 # C12
601 1 3.907000 2.338000 20.868000 # C
602 1 4.619000 3.599000 21.127001 # C
603 1 5.878000 3.604000 21.825001 # C
604 1 8.287000 7.296000 19.743000 # C
605 1 6.934000 5.914000 21.233999 # C
606 1 6.899000 4.623000 21.878000 # C
607 1 6.123000 2.402000 22.579000 # C
608 1 7.112000 2.365000 23.587000 # C
609 1 8.227000 6.239000 20.673000 # C
610 2 15.148000 21.754000 5.974000 # C10
611 3 15.194000 20.636000 5.122000 # C11
612 4 15.134000 9.029000 8.031000 # C12
613 1 20.261000 18.691999 4.514000 # C
614 1 20.973000 19.952999 4.773000 # C
615 1 22.232000 19.958000 5.471000 # C
616 1 24.639999 23.650000 3.389000 # C
617 1 23.288000 22.268000 4.880000 # C
618 1 23.253000 20.976000 5.524000 # C
619 1 22.476999 18.756001 6.225000 # C
620 1 23.466000 18.719000 7.233000 # C
621 1 24.580999 22.593000 4.319000 # C
622 2 31.502001 5.400000 22.327999 # C10
623 3 31.548000 4.282000 21.476000 # C11
624 4 31.488001 25.382999 24.385000 # C12
625 1 3.907000 30.370001 11.840000 # C
626 1 4.619000 29.108999 11.581000 # C
627 1 5.878000 29.104000 10.883000 # C
628 1 8.287000 25.412001 12.964000 # C
629 1 6.934000 26.794001 11.474000 # C
630 1 6.899000 28.084999 10.830000 # C
631 1 6.123000 30.306000 10.129000 # C
632 1 7.112000 30.343000 9.121000 # C
633 1 8.227000 26.469000 12.035000 # C
634 2 15.148000 10.954000 26.733999 # C10
635 3 15.194000 12.072000 27.586000 # C11
636 4 15.134000 23.679001 24.677000 # C12
637 1 20.261000 14.016000 28.194000 # C
638 1 20.973000 12.755000 27.934999 # C
639 1 22.232000 12.750000 27.237000 # C
640 1 24.639999 9.058000 29.318001 # C
641 1 23.288000 10.440000 27.827999 # C
642 1 23.253000 11.731000 27.184000 # C
643 1 22.476999 13.952000 26.483000 # C
644 1 23.466000 13.989000 25.475000 # C
645 1 24.580999 10.115000 28.389000 # C
646 2 31.502001 27.308001 10.380000 # C10
647 3 31.548000 28.426001 11.232000 # C11
648 4 31.488001 7.325000 8.323000 # C12
649 1 28.801001 2.338000 11.840000 # C
650 1 28.089001 3.599000 11.581000 # C
651 1 26.830000 3.604000 10.883000 # C
652 1 24.421000 7.296000 12.964000 # C
653 1 25.774000 5.914000 11.474000 # C
654 1 25.809000 4.623000 10.830000 # C
655 1 26.584999 2.402000 10.129000 # C
656 1 25.596001 2.365000 9.121000 # C
657 1 24.481001 6.239000 12.035000 # C
658 2 17.559999 21.754000 26.733999 # C10
659 3 17.514000 20.636000 27.586000 # C11
660 4 17.573000 9.029000 24.677000 # C12
661 1 12.447000 18.691999 28.194000 # C
662 1 11.735000 19.952999 27.934999 # C
663 1 10.476000 19.958000 27.237000 # C
664 1 8.067000 23.650000 29.318001 # C
665 1 9.420000 22.268000 27.827999 # C
666 1 9.455000 20.976000 27.184000 # C
667 1 10.231000 18.756001 26.483000 # C
668 1 9.242000 18.719000 25.475000 # C
669 1 8.127000 22.593000 28.389000 # C
670 2 1.206000 5.400000 10.380000 # C10
671 3 1.160000 4.282000 11.232000 # C11
672 4 1.220000 25.382999 8.323000 # C12
673 1 20.868000 28.801001 30.370001 # C
674 1 21.127001 28.089001 29.108999 # C
675 1 21.825001 26.830000 29.104000 # C
676 1 19.743000 24.421000 25.412001 # C
677 1 21.233999 25.774000 26.794001 # C
678 1 21.878000 25.809000 28.084999 # C
679 1 22.579000 26.584999 30.306000 # C
680 1 23.587000 25.596001 30.343000 # C
681 1 20.673000 24.481001 26.469000 # C
682 2 5.974000 17.559999 10.954000 # C10
683 3 5.122000 17.514000 12.072000 # C11
684 4 8.031000 17.573000 23.679001 # C12
685 1 4.514000 12.447000 14.016000 # C
686 1 4.773000 11.735000 12.755000 # C
687 1 5.471000 10.476000 12.750000 # C
688 1 3.389000 8.067000 9.058000 # C
689 1 4.880000 9.420000 10.440000 # C
690 1 5.524000 9.455000 11.731000 # C
691 1 6.225000 10.231000 13.952000 # C
692 1 7.233000 9.242000 13.989000 # C
693 1 4.319000 8.127000 10.115000 # C
694 2 22.327999 1.206000 27.308001 # C10
695 3 21.476000 1.160000 28.426001 # C11
696 4 24.385000 1.220000 7.325000 # C12
697 1 20.868000 3.907000 2.338000 # C
698 1 21.127001 4.619000 3.599000 # C
699 1 21.825001 5.878000 3.604000 # C
700 1 19.743000 8.287000 7.296000 # C
701 1 21.233999 6.934000 5.914000 # C
702 1 21.878000 6.899000 4.623000 # C
703 1 22.579000 6.123000 2.402000 # C
704 1 23.587000 7.112000 2.365000 # C
705 1 20.673000 8.227000 6.239000 # C
706 2 5.974000 15.148000 21.754000 # C10
707 3 5.122000 15.194000 20.636000 # C11
708 4 8.031000 15.134000 9.029000 # C12
709 1 4.514000 20.261000 18.691999 # C
710 1 4.773000 20.973000 19.952999 # C
711 1 5.471000 22.232000 19.958000 # C
712 1 3.389000 24.639999 23.650000 # C
713 1 4.880000 23.288000 22.268000 # C
714 1 5.524000 23.253000 20.976000 # C
715 1 6.225000 22.476999 18.756001 # C
716 1 7.233000 23.466000 18.719000 # C
717 1 4.319000 24.580999 22.593000 # C
718 2 22.327999 31.502001 5.400000 # C10
719 3 21.476000 31.548000 4.282000 # C11
720 4 24.385000 31.488001 25.382999 # C12
721 1 11.840000 3.907000 30.370001 # C
722 1 11.581000 4.619000 29.108999 # C
723 1 10.883000 5.878000 29.104000 # C
724 1 12.964000 8.287000 25.412001 # C
725 1 11.474000 6.934000 26.794001 # C
726 1 10.830000 6.899000 28.084999 # C
727 1 10.129000 6.123000 30.306000 # C
728 1 9.121000 7.112000 30.343000 # C
729 1 12.035000 8.227000 26.469000 # C
730 2 26.733999 15.148000 10.954000 # C10
731 3 27.586000 15.194000 12.072000 # C11
732 4 24.677000 15.134000 23.679001 # C12
733 1 28.194000 20.261000 14.016000 # C
734 1 27.934999 20.973000 12.755000 # C
735 1 27.237000 22.232000 12.750000 # C
736 1 29.318001 24.639999 9.058000 # C
737 1 27.827999 23.288000 10.440000 # C
738 1 27.184000 23.253000 11.731000 # C
739 1 26.483000 22.476999 13.952000 # C
740 1 25.475000 23.466000 13.989000 # C
741 1 28.389000 24.580999 10.115000 # C
742 2 10.380000 31.502001 27.308001 # C10
743 3 11.232000 31.548000 28.426001 # C11
744 4 8.323000 31.488001 7.325000 # C12
745 1 11.840000 28.801001 2.338000 # C
746 1 11.581000 28.089001 3.599000 # C
747 1 10.883000 26.830000 3.604000 # C
748 1 12.964000 24.421000 7.296000 # C