LAMMPS data file. CGCMM style. atom_style atomic generated by VMD/TopoTools v1.6 on Tue May 03 11:32:24 EDT 2016
 744 atoms
 0 bonds
 0 angles
 0 dihedrals
 0 impropers
 1 atom types
 0 bond types
 0 angle types
 0 dihedral types
 0 improper types
 -0.061000 23.707000  xlo xhi
 -0.005000 23.763000  ylo yhi
 -0.388500 23.379500  zlo zhi

# Pair Coeffs
#
# 1  C

 Masses

 1 12.010700 # C

 Atoms

1 1 1.777000 0.152000 9.030000 # C
2 1 2.420000 1.443000 8.766000 # C
3 1 3.739000 1.373000 8.279000 # C
4 1 6.063000 5.125000 10.342000 # C
5 1 4.724000 3.764000 8.818000 # C
6 1 4.699000 2.445000 8.231000 # C
7 1 4.104000 0.058000 7.770000 # C
8 1 5.082000 0.048000 6.744000 # C
9 1 6.025000 4.117000 9.358000 # C
10 1 2.094000 5.977000 7.538000 # C
11 1 1.151000 5.895000 6.498000 # C
12 1 1.140000 2.250000 14.291000 # C
13 1 1.185000 3.625000 14.790000 # C
14 1 3.546000 4.605000 14.178000 # C
15 1 2.285000 4.575000 14.863000 # C
16 1 13.661000 12.037000 20.914000 # C
17 1 14.304000 13.327000 20.650000 # C
18 1 15.623000 13.258000 20.164000 # C
19 1 17.947001 17.009001 22.226000 # C
20 1 16.608999 15.648000 20.702000 # C
21 1 16.583000 14.330000 20.115000 # C
22 1 15.988000 11.942000 19.653999 # C
23 1 16.966999 11.932000 18.628000 # C
24 1 17.909000 16.000999 21.242001 # C
25 1 13.978000 17.861000 19.422001 # C
26 1 13.035000 17.778999 18.382999 # C
27 1 13.024000 14.134000 2.407000 # C
28 1 13.069000 15.509000 2.906000 # C
29 1 15.430000 16.490000 2.293000 # C
30 1 14.170000 16.459000 2.979000 # C
31 1 21.868999 23.605000 9.030000 # C
32 1 21.225000 22.315001 8.766000 # C
33 1 19.906000 22.384001 8.279000 # C
34 1 17.583000 18.632999 10.342000 # C
35 1 18.921000 19.993999 8.818000 # C
36 1 18.947001 21.312000 8.231000 # C
37 1 19.542000 23.700001 7.770000 # C
38 1 18.563000 23.709999 6.744000 # C
39 1 17.621000 19.641001 9.358000 # C
40 1 21.551001 17.781000 7.538000 # C
41 1 22.495001 17.863001 6.498000 # C
42 1 22.504999 21.507999 14.291000 # C
43 1 22.461000 20.132999 14.790000 # C
44 1 20.100000 19.152000 14.178000 # C
45 1 21.360001 19.183001 14.863000 # C
46 1 9.984000 11.721000 20.914000 # C
47 1 9.341000 10.430000 20.650000 # C
48 1 8.022000 10.500000 20.164000 # C
49 1 5.699000 6.748000 22.226000 # C
50 1 7.037000 8.110000 20.702000 # C
51 1 7.062000 9.428000 20.115000 # C
52 1 7.658000 11.816000 19.653999 # C
53 1 6.679000 11.826000 18.628000 # C
54 1 5.737000 7.756000 21.242001 # C
55 1 9.667000 5.897000 19.422001 # C
56 1 10.611000 5.979000 18.382999 # C
57 1 10.621000 9.623000 2.407000 # C
58 1 10.577000 8.249000 2.906000 # C
59 1 8.216000 7.268000 2.293000 # C
60 1 9.476000 7.298000 2.979000 # C
61 1 21.868999 0.152000 13.962000 # C
62 1 21.225000 1.443000 14.225000 # C
63 1 19.906000 1.373000 14.712000 # C
64 1 17.583000 5.125000 12.649000 # C
65 1 18.921000 3.764000 14.173000 # C
66 1 18.947001 2.445000 14.760000 # C
67 1 19.542000 0.058000 15.222000 # C
68 1 18.563000 0.048000 16.247000 # C
69 1 17.621000 4.117000 13.633000 # C
70 1 21.551001 5.977000 15.453000 # C
71 1 22.495001 5.895000 16.493000 # C
72 1 22.504999 2.250000 8.700000 # C
73 1 22.461000 3.625000 8.201000 # C
74 1 20.100000 4.605000 8.814000 # C
75 1 21.360001 4.575000 8.128000 # C
76 1 9.984000 12.037000 2.077000 # C
77 1 9.341000 13.327000 2.341000 # C
78 1 8.022000 13.258000 2.827000 # C
79 1 5.699000 17.009001 0.765000 # C
80 1 7.037000 15.648000 2.289000 # C
81 1 7.062000 14.330000 2.876000 # C
82 1 7.658000 11.942000 3.337000 # C
83 1 6.679000 11.932000 4.363000 # C
84 1 5.737000 16.000999 1.749000 # C
85 1 9.667000 17.861000 3.569000 # C
86 1 10.611000 17.778999 4.609000 # C
87 1 10.621000 14.134000 20.584000 # C
88 1 10.577000 15.509000 20.084999 # C
89 1 8.216000 16.490000 20.698000 # C
90 1 9.476000 16.459000 20.011999 # C
91 1 1.777000 23.605000 13.962000 # C
92 1 2.420000 22.315001 14.225000 # C
93 1 3.739000 22.384001 14.712000 # C
94 1 6.063000 18.632999 12.649000 # C
95 1 4.724000 19.993999 14.173000 # C
96 1 4.699000 21.312000 14.760000 # C
97 1 4.104000 23.700001 15.222000 # C
98 1 5.083000 23.709999 16.247000 # C
99 1 6.025000 19.641001 13.633000 # C
100 1 2.094000 17.781000 15.453000 # C
101 1 1.151000 17.863001 16.493000 # C
102 1 1.140000 21.507999 8.700000 # C
103 1 1.185000 20.132999 8.201000 # C
104 1 3.546000 19.152000 8.814000 # C
105 1 2.285000 19.183001 8.128000 # C
106 1 13.661000 11.721000 2.077000 # C
107 1 14.304000 10.430000 2.341000 # C
108 1 15.623000 10.500000 2.827000 # C
109 1 17.947001 6.748000 0.765000 # C
110 1 16.608999 8.110000 2.289000 # C
111 1 16.583000 9.428000 2.876000 # C
112 1 15.988000 11.816000 3.337000 # C
113 1 16.966999 11.826000 4.363000 # C
114 1 17.909000 7.756000 1.749000 # C
115 1 13.978000 5.897000 3.569000 # C
116 1 13.035000 5.979000 4.609000 # C
117 1 13.024000 9.623000 20.584000 # C
118 1 13.069000 8.249000 20.084999 # C
119 1 15.430000 7.268000 20.698000 # C
120 1 14.170000 7.298000 20.011999 # C
121 1 9.357000 1.833000 -0.231000 # C
122 1 9.093000 2.476000 1.060000 # C
123 1 8.607000 3.795000 0.990000 # C
124 1 10.669000 6.119000 4.742000 # C
125 1 9.145000 4.781000 3.381000 # C
126 1 8.558000 4.755000 2.062000 # C
127 1 8.097000 4.160000 -0.325000 # C
128 1 7.071000 5.139000 -0.336000 # C
129 1 9.685000 6.081000 3.734000 # C
130 1 7.865000 2.150000 5.593000 # C
131 1 6.826000 1.207000 5.511000 # C
132 1 14.618000 1.196000 1.867000 # C
133 1 15.117000 1.241000 3.241000 # C
134 1 14.505000 3.602000 4.222000 # C
135 1 15.190000 2.342000 4.192000 # C
136 1 21.240999 13.717000 11.653000 # C
137 1 20.976999 14.361000 12.944000 # C
138 1 20.490999 15.680000 12.874000 # C
139 1 22.554001 18.003000 16.625999 # C
140 1 21.028999 16.665001 15.265000 # C
141 1 20.443001 16.639000 13.946000 # C
142 1 19.981001 16.044001 11.559000 # C
143 1 18.955000 17.023001 11.549000 # C
144 1 21.569000 17.965000 15.618000 # C
145 1 19.750000 14.034000 17.478001 # C
146 1 18.709999 13.091000 17.395000 # C
147 1 2.734000 13.081000 13.751000 # C
148 1 3.233000 13.125000 15.125000 # C
149 1 2.621000 15.486000 16.106001 # C
150 1 3.306000 14.226000 16.076000 # C
151 1 9.357000 21.924999 23.222000 # C
152 1 9.093000 21.281000 21.931000 # C
153 1 8.607000 19.962000 22.000999 # C
154 1 10.669000 17.639000 18.249001 # C
155 1 9.145000 18.976999 19.610001 # C
156 1 8.558000 19.003000 20.929001 # C
157 1 8.097000 19.598000 23.316999 # C
158 1 7.071000 18.618999 23.327000 # C
159 1 9.685000 17.677000 19.257000 # C
160 1 7.865000 21.607000 17.398001 # C
161 1 6.826000 22.551001 17.480000 # C
162 1 14.618000 22.561001 21.124001 # C
163 1 15.117000 22.517000 19.750000 # C
164 1 14.505000 20.156000 18.768999 # C
165 1 15.190000 21.416000 18.799000 # C
166 1 21.240999 10.041000 11.338000 # C
167 1 20.976999 9.397000 10.047000 # C
168 1 20.490999 8.078000 10.117000 # C
169 1 22.554001 5.755000 6.365000 # C
170 1 21.028999 7.093000 7.726000 # C
171 1 20.443001 7.119000 9.045000 # C
172 1 19.981001 7.714000 11.432000 # C
173 1 18.955000 6.735000 11.442000 # C
174 1 21.569000 5.793000 7.373000 # C
175 1 19.750000 9.723000 5.513000 # C
176 1 18.709999 10.667000 5.596000 # C
177 1 2.734000 10.677000 9.240000 # C
178 1 3.233000 10.633000 7.866000 # C
179 1 2.621000 8.272000 6.885000 # C
180 1 3.306000 9.532000 6.915000 # C
181 1 14.289000 21.924999 -0.231000 # C
182 1 14.552000 21.281000 1.060000 # C
183 1 15.039000 19.962000 0.990000 # C
184 1 12.976000 17.639000 4.742000 # C
185 1 14.500000 18.976999 3.381000 # C
186 1 15.087000 19.003000 2.062000 # C
187 1 15.549000 19.598000 -0.325000 # C
188 1 16.573999 18.618999 -0.336000 # C
189 1 13.960000 17.677000 3.734000 # C
190 1 15.780000 21.607000 5.593000 # C
191 1 16.820000 22.551001 5.511000 # C
192 1 9.027000 22.561001 1.867000 # C
193 1 8.528000 22.517000 3.241000 # C
194 1 9.141000 20.156000 4.222000 # C
195 1 8.455000 21.416000 4.192000 # C
196 1 2.405000 10.041000 11.653000 # C
197 1 2.668000 9.397000 12.944000 # C
198 1 3.155000 8.078000 12.874000 # C
199 1 1.092000 5.755000 16.625999 # C
200 1 2.616000 7.093000 15.265000 # C
201 1 3.203000 7.119000 13.946000 # C
202 1 3.665000 7.714000 11.559000 # C
203 1 4.690000 6.735000 11.549000 # C
204 1 2.076000 5.793000 15.618000 # C
205 1 3.896000 9.723000 17.478001 # C
206 1 4.936000 10.667000 17.395000 # C
207 1 20.912001 10.677000 13.751000 # C
208 1 20.412001 10.633000 15.125000 # C
209 1 21.025000 8.272000 16.106001 # C
210 1 20.339001 9.532000 16.076000 # C
211 1 14.289000 1.833000 23.222000 # C
212 1 14.552000 2.476000 21.931000 # C
213 1 15.039000 3.795000 22.000999 # C
214 1 12.976000 6.119000 18.249001 # C
215 1 14.500000 4.781000 19.610001 # C
216 1 15.087000 4.755000 20.929001 # C
217 1 15.549000 4.160000 23.316999 # C
218 1 16.573999 5.139000 23.327000 # C
219 1 13.960000 6.081000 19.257000 # C
220 1 15.780000 2.150000 17.398001 # C
221 1 16.820000 1.207000 17.480000 # C
222 1 9.027000 1.196000 21.124001 # C
223 1 8.528000 1.241000 19.750000 # C
224 1 9.141000 3.602000 18.768999 # C
225 1 8.455000 2.342000 18.799000 # C
226 1 2.405000 13.717000 11.338000 # C
227 1 2.668000 14.361000 10.047000 # C
228 1 3.155000 15.680000 10.117000 # C
229 1 1.092000 18.003000 6.365000 # C
230 1 2.616000 16.665001 7.726000 # C
231 1 3.203000 16.639000 9.045000 # C
232 1 3.665000 16.044001 11.432000 # C
233 1 4.690000 17.023001 11.442000 # C
234 1 2.076000 17.965000 7.373000 # C
235 1 3.896000 14.034000 5.513000 # C
236 1 4.936000 13.091000 5.596000 # C
237 1 20.912001 13.081000 9.240000 # C
238 1 20.412001 13.125000 7.866000 # C
239 1 21.025000 15.486000 6.885000 # C
240 1 20.339001 14.226000 6.915000 # C
241 1 0.096000 9.413000 1.450000 # C
242 1 1.387000 9.149000 2.093000 # C
243 1 1.317000 8.663000 3.412000 # C
244 1 5.069000 10.726000 5.735000 # C
245 1 3.708000 9.201000 4.397000 # C
246 1 2.389000 8.614000 4.372000 # C
247 1 0.002000 8.153000 3.777000 # C
248 1 -0.008000 7.127000 4.755000 # C
249 1 4.061000 9.741000 5.697000 # C
250 1 5.921000 7.922000 1.767000 # C
251 1 5.839000 6.882000 0.823000 # C
252 1 2.194000 14.674000 0.813000 # C
253 1 3.569000 15.173000 0.858000 # C
254 1 4.549000 14.561000 3.219000 # C
255 1 4.519000 15.247000 1.958000 # C
256 1 11.980000 21.297001 13.334000 # C
257 1 13.271000 21.034000 13.977000 # C
258 1 13.202000 20.547001 15.296000 # C
259 1 16.952999 22.610001 17.620001 # C
260 1 15.592000 21.084999 16.281000 # C
261 1 14.273000 20.499001 16.256001 # C
262 1 11.886000 20.037001 15.661000 # C
263 1 11.876000 19.011000 16.639000 # C
264 1 15.945000 21.625999 17.582001 # C
265 1 17.805000 19.806000 13.651000 # C
266 1 17.723000 18.766001 12.707000 # C
267 1 14.078000 2.790000 12.697000 # C
268 1 15.453000 3.289000 12.742000 # C
269 1 16.433001 2.677000 15.103000 # C
270 1 16.403000 3.362000 13.842000 # C
271 1 23.549000 9.413000 21.541000 # C
272 1 22.259001 9.149000 20.898001 # C
273 1 22.327999 8.663000 19.579000 # C
274 1 18.577000 10.726000 17.256001 # C
275 1 19.938000 9.201000 18.594000 # C
276 1 21.256001 8.614000 18.618999 # C
277 1 23.643999 8.153000 19.214001 # C
278 1 23.653999 7.127000 18.236000 # C
279 1 19.584000 9.741000 17.294001 # C
280 1 17.725000 7.922000 21.224001 # C
281 1 17.806999 6.882000 22.167999 # C
282 1 21.451000 14.674000 22.177999 # C
283 1 20.077000 15.173000 22.132999 # C
284 1 19.096001 14.561000 19.773001 # C
285 1 19.125999 15.247000 21.033001 # C
286 1 11.665000 21.297001 9.657000 # C
287 1 10.374000 21.034000 9.014000 # C
288 1 10.444000 20.547001 7.695000 # C
289 1 6.692000 22.610001 5.371000 # C
290 1 8.054000 21.084999 6.710000 # C
291 1 9.372000 20.499001 6.735000 # C
292 1 11.760000 20.037001 7.330000 # C
293 1 11.770000 19.011000 6.352000 # C
294 1 7.700000 21.625999 5.409000 # C
295 1 5.841000 19.806000 9.340000 # C
296 1 5.923000 18.766001 10.284000 # C
297 1 9.567000 2.790000 10.294000 # C
298 1 8.193000 3.289000 10.249000 # C
299 1 7.212000 2.677000 7.888000 # C
300 1 7.242000 3.362000 9.149000 # C
301 1 0.096000 14.345000 21.541000 # C
302 1 1.387000 14.608000 20.898001 # C
303 1 1.317000 15.095000 19.579000 # C
304 1 5.069000 13.032000 17.256001 # C
305 1 3.708000 14.556000 18.594000 # C
306 1 2.389000 15.143000 18.618999 # C
307 1 0.002000 15.605000 19.214001 # C
308 1 -0.008000 16.629999 18.236000 # C
309 1 4.061000 14.016000 17.294001 # C
310 1 5.921000 15.836000 21.224001 # C
311 1 5.839000 16.875999 22.167999 # C
312 1 2.194000 9.083000 22.177999 # C
313 1 3.569000 8.584000 22.132999 # C
314 1 4.549000 9.197000 19.773001 # C
315 1 4.519000 8.511000 21.033001 # C
316 1 11.980000 2.461000 9.657000 # C
317 1 13.271000 2.724000 9.014000 # C
318 1 13.202000 3.211000 7.695000 # C
319 1 16.952999 1.148000 5.371000 # C
320 1 15.592000 2.672000 6.710000 # C
321 1 14.273000 3.259000 6.735000 # C
322 1 11.886000 3.721000 7.330000 # C
323 1 11.876000 4.746000 6.352000 # C
324 1 15.945000 2.132000 5.409000 # C
325 1 17.805000 3.952000 9.340000 # C
326 1 17.723000 4.992000 10.284000 # C
327 1 14.078000 20.968000 10.294000 # C
328 1 15.453000 20.469000 10.249000 # C
329 1 16.433001 21.080999 7.888000 # C
330 1 16.403000 20.395000 9.149000 # C
331 1 23.549000 14.345000 1.450000 # C
332 1 22.259001 14.608000 2.093000 # C
333 1 22.327999 15.095000 3.412000 # C
334 1 18.577000 13.032000 5.735000 # C
335 1 19.938000 14.556000 4.397000 # C
336 1 21.256001 15.143000 4.372000 # C
337 1 23.643999 15.605000 3.777000 # C
338 1 23.653999 16.629999 4.755000 # C
339 1 19.584000 14.016000 5.697000 # C
340 1 17.725000 15.836000 1.767000 # C
341 1 17.806999 16.875999 0.823000 # C
342 1 21.451000 9.083000 0.813000 # C
343 1 20.077000 8.584000 0.858000 # C
344 1 19.096001 9.197000 3.219000 # C
345 1 19.125999 8.511000 1.958000 # C
346 1 11.665000 2.461000 13.334000 # C
347 1 10.374000 2.724000 13.977000 # C
348 1 10.444000 3.211000 15.296000 # C
349 1 6.692000 1.148000 17.620001 # C
350 1 8.054000 2.672000 16.281000 # C
351 1 9.372000 3.259000 16.256001 # C
352 1 11.760000 3.721000 15.661000 # C
353 1 11.770000 4.746000 16.639000 # C
354 1 7.700000 2.132000 17.582001 # C
355 1 5.841000 3.952000 13.651000 # C
356 1 5.923000 4.992000 12.707000 # C
357 1 9.567000 20.968000 12.697000 # C
358 1 8.193000 20.469000 12.742000 # C
359 1 7.212000 21.080999 15.103000 # C
360 1 7.242000 20.395000 13.842000 # C
361 1 0.096000 1.833000 9.030000 # C
362 1 1.387000 2.476000 8.766000 # C
363 1 1.317000 3.795000 8.279000 # C
364 1 5.069000 6.119000 10.342000 # C
365 1 3.708000 4.781000 8.818000 # C
366 1 2.389000 4.755000 8.231000 # C
367 1 0.002000 4.160000 7.770000 # C
368 1 -0.008000 5.139000 6.744000 # C
369 1 4.061000 6.081000 9.358000 # C
370 1 5.921000 2.150000 7.538000 # C
371 1 5.839000 1.207000 6.498000 # C
372 1 2.194000 1.196000 14.291000 # C
373 1 3.569000 1.241000 14.790000 # C
374 1 4.549000 3.602000 14.178000 # C
375 1 4.519000 2.342000 14.863000 # C
376 1 11.980000 13.717000 20.914000 # C
377 1 13.271000 14.361000 20.650000 # C
378 1 13.202000 15.680000 20.164000 # C
379 1 16.952999 18.003000 22.226000 # C
380 1 15.592000 16.665001 20.702000 # C
381 1 14.273000 16.639000 20.115000 # C
382 1 11.886000 16.044001 19.653999 # C
383 1 11.876000 17.023001 18.628000 # C
384 1 15.945000 17.965000 21.242001 # C
385 1 17.805000 14.034000 19.422001 # C
386 1 17.723000 13.091000 18.382999 # C
387 1 14.078000 13.081000 2.407000 # C
388 1 15.453000 13.125000 2.906000 # C
389 1 16.433001 15.486000 2.293000 # C
390 1 16.403000 14.226000 2.979000 # C
391 1 23.549000 21.924999 9.030000 # C
392 1 22.259001 21.281000 8.766000 # C
393 1 22.327999 19.962000 8.279000 # C
394 1 18.577000 17.639000 10.342000 # C
395 1 19.938000 18.976999 8.818000 # C
396 1 21.256001 19.003000 8.231000 # C
397 1 23.643999 19.598000 7.770000 # C
398 1 23.653999 18.618999 6.744000 # C
399 1 19.584000 17.677000 9.358000 # C
400 1 17.725000 21.607000 7.538000 # C
401 1 17.806999 22.551001 6.498000 # C
402 1 21.451000 22.561001 14.291000 # C
403 1 20.077000 22.517000 14.790000 # C
404 1 19.096001 20.156000 14.178000 # C
405 1 19.125999 21.416000 14.863000 # C
406 1 11.665000 10.041000 20.914000 # C
407 1 10.374000 9.397000 20.650000 # C
408 1 10.444000 8.078000 20.164000 # C
409 1 6.692000 5.755000 22.226000 # C
410 1 8.054000 7.093000 20.702000 # C
411 1 9.372000 7.119000 20.115000 # C
412 1 11.760000 7.714000 19.653999 # C
413 1 11.770000 6.735000 18.628000 # C
414 1 7.700000 5.793000 21.242001 # C
415 1 5.841000 9.723000 19.422001 # C
416 1 5.923000 10.667000 18.382999 # C
417 1 9.567000 10.677000 2.407000 # C
418 1 8.193000 10.633000 2.906000 # C
419 1 7.212000 8.272000 2.293000 # C
420 1 7.242000 9.532000 2.979000 # C
421 1 0.096000 21.924999 13.962000 # C
422 1 1.387000 21.281000 14.225000 # C
423 1 1.317000 19.962000 14.712000 # C
424 1 5.069000 17.639000 12.649000 # C
425 1 3.708000 18.976999 14.173000 # C
426 1 2.389000 19.003000 14.760000 # C
427 1 0.002000 19.598000 15.222000 # C
428 1 -0.008000 18.618999 16.247000 # C
429 1 4.061000 17.677000 13.633000 # C
430 1 5.921000 21.607000 15.453000 # C
431 1 5.839000 22.551001 16.493000 # C
432 1 2.194000 22.561001 8.700000 # C
433 1 3.569000 22.517000 8.201000 # C
434 1 4.549000 20.156000 8.814000 # C
435 1 4.519000 21.416000 8.128000 # C
436 1 11.980000 10.041000 2.077000 # C
437 1 13.271000 9.397000 2.341000 # C
438 1 13.202000 8.078000 2.827000 # C
439 1 16.952999 5.755000 0.765000 # C
440 1 15.592000 7.093000 2.289000 # C
441 1 14.273000 7.119000 2.876000 # C
442 1 11.886000 7.714000 3.337000 # C
443 1 11.876000 6.735000 4.363000 # C
444 1 15.945000 5.793000 1.749000 # C
445 1 17.805000 9.723000 3.569000 # C
446 1 17.723000 10.667000 4.609000 # C
447 1 14.078000 10.677000 20.584000 # C
448 1 15.453000 10.633000 20.084999 # C
449 1 16.433001 8.272000 20.698000 # C
450 1 16.403000 9.532000 20.011999 # C
451 1 23.549000 1.833000 13.962000 # C
452 1 22.259001 2.476000 14.225000 # C
453 1 22.327999 3.795000 14.712000 # C
454 1 18.577000 6.119000 12.649000 # C
455 1 19.938000 4.781000 14.173000 # C
456 1 21.256001 4.755000 14.760000 # C
457 1 23.643999 4.160000 15.222000 # C
458 1 23.653999 5.139000 16.247000 # C
459 1 19.584000 6.081000 13.633000 # C
460 1 17.725000 2.150000 15.453000 # C
461 1 17.806999 1.207000 16.493000 # C
462 1 21.451000 1.196000 8.700000 # C
463 1 20.077000 1.241000 8.201000 # C
464 1 19.096001 3.602000 8.814000 # C
465 1 19.125999 2.342000 8.128000 # C
466 1 11.665000 13.717000 2.077000 # C
467 1 10.374000 14.361000 2.341000 # C
468 1 10.444000 15.680000 2.827000 # C
469 1 6.692000 18.003000 0.765000 # C
470 1 8.054000 16.665001 2.289000 # C
471 1 9.372000 16.639000 2.876000 # C
472 1 11.760000 16.044001 3.337000 # C
473 1 11.770000 17.023001 4.363000 # C
474 1 7.700000 17.965000 1.749000 # C
475 1 5.841000 14.034000 3.569000 # C
476 1 5.923000 13.091000 4.609000 # C
477 1 9.567000 13.081000 20.584000 # C
478 1 8.193000 13.125000 20.084999 # C
479 1 7.212000 15.486000 20.698000 # C
480 1 7.242000 14.226000 20.011999 # C
481 1 1.777000 9.413000 -0.231000 # C
482 1 2.420000 9.149000 1.060000 # C
483 1 3.739000 8.663000 0.990000 # C
484 1 6.063000 10.726000 4.742000 # C
485 1 4.724000 9.201000 3.381000 # C
486 1 4.699000 8.614000 2.062000 # C
487 1 4.104000 8.153000 -0.325000 # C
488 1 5.083000 7.127000 -0.336000 # C
489 1 6.025000 9.741000 3.734000 # C
490 1 2.094000 7.922000 5.593000 # C
491 1 1.151000 6.882000 5.511000 # C
492 1 1.140000 14.674000 1.867000 # C
493 1 1.185000 15.173000 3.241000 # C
494 1 3.546000 14.561000 4.222000 # C
495 1 2.285000 15.247000 4.192000 # C
496 1 13.661000 21.297001 11.653000 # C
497 1 14.304000 21.034000 12.944000 # C
498 1 15.623000 20.547001 12.874000 # C
499 1 17.947001 22.610001 16.625999 # C
500 1 16.608999 21.084999 15.265000 # C
501 1 16.583000 20.499001 13.946000 # C
502 1 15.988000 20.037001 11.559000 # C
503 1 16.966999 19.011000 11.549000 # C
504 1 17.909000 21.625999 15.618000 # C
505 1 13.978000 19.806000 17.478001 # C
506 1 13.035000 18.766001 17.395000 # C
507 1 13.024000 2.790000 13.751000 # C
508 1 13.069000 3.289000 15.125000 # C
509 1 15.430000 2.677000 16.106001 # C
510 1 14.170000 3.362000 16.076000 # C
511 1 21.868999 9.413000 23.222000 # C
512 1 21.225000 9.149000 21.931000 # C
513 1 19.906000 8.663000 22.000999 # C
514 1 17.583000 10.726000 18.249001 # C
515 1 18.921000 9.201000 19.610001 # C
516 1 18.947001 8.614000 20.929001 # C
517 1 19.542000 8.153000 23.316999 # C
518 1 18.563000 7.127000 23.327000 # C
519 1 17.621000 9.741000 19.257000 # C
520 1 21.551001 7.922000 17.398001 # C
521 1 22.495001 6.882000 17.480000 # C
522 1 22.504999 14.674000 21.124001 # C
523 1 22.461000 15.173000 19.750000 # C
524 1 20.100000 14.561000 18.768999 # C
525 1 21.360001 15.247000 18.799000 # C
526 1 9.984000 21.297001 11.338000 # C
527 1 9.341000 21.034000 10.047000 # C
528 1 8.022000 20.547001 10.117000 # C
529 1 5.699000 22.610001 6.365000 # C
530 1 7.037000 21.084999 7.726000 # C
531 1 7.062000 20.499001 9.045000 # C
532 1 7.658000 20.037001 11.432000 # C
533 1 6.679000 19.011000 11.442000 # C
534 1 5.737000 21.625999 7.373000 # C
535 1 9.667000 19.806000 5.513000 # C
536 1 10.611000 18.766001 5.596000 # C
537 1 10.621000 2.790000 9.240000 # C
538 1 10.577000 3.289000 7.866000 # C
539 1 8.216000 2.677000 6.885000 # C
540 1 9.476000 3.362000 6.915000 # C
541 1 21.868999 14.345000 -0.231000 # C
542 1 21.225000 14.608000 1.060000 # C
543 1 19.906000 15.095000 0.990000 # C
544 1 17.583000 13.032000 4.742000 # C
545 1 18.921000 14.556000 3.381000 # C
546 1 18.947001 15.143000 2.062000 # C
547 1 19.542000 15.605000 -0.325000 # C
548 1 18.563000 16.629999 -0.336000 # C
549 1 17.621000 14.016000 3.734000 # C
550 1 21.551001 15.836000 5.593000 # C
551 1 22.495001 16.875999 5.511000 # C
552 1 22.504999 9.083000 1.867000 # C
553 1 22.461000 8.584000 3.241000 # C
554 1 20.100000 9.197000 4.222000 # C
555 1 21.360001 8.511000 4.192000 # C
556 1 9.984000 2.461000 11.653000 # C
557 1 9.341000 2.724000 12.944000 # C
558 1 8.022000 3.211000 12.874000 # C
559 1 5.699000 1.148000 16.625999 # C
560 1 7.037000 2.672000 15.265000 # C
561 1 7.062000 3.259000 13.946000 # C
562 1 7.658000 3.721000 11.559000 # C
563 1 6.679000 4.746000 11.549000 # C
564 1 5.737000 2.132000 15.618000 # C
565 1 9.667000 3.952000 17.478001 # C
566 1 10.611000 4.992000 17.395000 # C
567 1 10.621000 20.968000 13.751000 # C
568 1 10.577000 20.469000 15.125000 # C
569 1 8.216000 21.080999 16.106001 # C
570 1 9.476000 20.395000 16.076000 # C
571 1 1.777000 14.345000 23.222000 # C
572 1 2.420000 14.608000 21.931000 # C
573 1 3.739000 15.095000 22.000999 # C
574 1 6.063000 13.032000 18.249001 # C
575 1 4.724000 14.556000 19.610001 # C
576 1 4.699000 15.143000 20.929001 # C
577 1 4.104000 15.605000 23.316999 # C
578 1 5.083000 16.629999 23.327000 # C
579 1 6.025000 14.016000 19.257000 # C
580 1 2.094000 15.836000 17.398001 # C
581 1 1.151000 16.875999 17.480000 # C
582 1 1.140000 9.083000 21.124001 # C
583 1 1.185000 8.584000 19.750000 # C
584 1 3.546000 9.197000 18.768999 # C
585 1 2.285000 8.511000 18.799000 # C
586 1 13.661000 2.461000 11.338000 # C
587 1 14.304000 2.724000 10.047000 # C
588 1 15.623000 3.211000 10.117000 # C
589 1 17.947001 1.148000 6.365000 # C
590 1 16.608999 2.672000 7.726000 # C
591 1 16.583000 3.259000 9.045000 # C
592 1 15.988000 3.721000 11.432000 # C
593 1 16.966999 4.746000 11.442000 # C
594 1 17.909000 2.132000 7.373000 # C
595 1 13.978000 3.952000 5.513000 # C
596 1 13.035000 4.992000 5.596000 # C
597 1 13.024000 20.968000 9.240000 # C
598 1 13.069000 20.469000 7.866000 # C
599 1 15.430000 21.080999 6.885000 # C
600 1 14.170000 20.395000 6.915000 # C
601 1 9.357000 0.152000 1.450000 # C
602 1 9.093000 1.443000 2.093000 # C
603 1 8.607000 1.373000 3.412000 # C
604 1 10.669000 5.125000 5.735000 # C
605 1 9.145000 3.764000 4.397000 # C
606 1 8.558000 2.445000 4.372000 # C
607 1 8.097000 0.058000 3.777000 # C
608 1 7.071000 0.048000 4.755000 # C
609 1 9.685000 4.117000 5.697000 # C
610 1 7.865000 5.977000 1.767000 # C
611 1 6.826000 5.895000 0.823000 # C
612 1 14.618000 2.250000 0.813000 # C
613 1 15.117000 3.625000 0.858000 # C
614 1 14.505000 4.605000 3.219000 # C
615 1 15.190000 4.575000 1.958000 # C
616 1 21.240999 12.037000 13.334000 # C
617 1 20.976999 13.327000 13.977000 # C
618 1 20.490999 13.258000 15.296000 # C
619 1 22.554001 17.009001 17.620001 # C
620 1 21.028999 15.648000 16.281000 # C
621 1 20.443001 14.330000 16.256001 # C
622 1 19.981001 11.942000 15.661000 # C
623 1 18.955000 11.932000 16.639000 # C
624 1 21.569000 16.000999 17.582001 # C
625 1 19.750000 17.861000 13.651000 # C
626 1 18.709999 17.778999 12.707000 # C
627 1 2.734000 14.134000 12.697000 # C
628 1 3.233000 15.509000 12.742000 # C
629 1 2.621000 16.490000 15.103000 # C
630 1 3.306000 16.459000 13.842000 # C
631 1 9.357000 23.605000 21.541000 # C
632 1 9.093000 22.315001 20.898001 # C
633 1 8.607000 22.384001 19.579000 # C
634 1 10.669000 18.632999 17.256001 # C
635 1 9.145000 19.993999 18.594000 # C
636 1 8.558000 21.312000 18.618999 # C
637 1 8.097000 23.700001 19.214001 # C
638 1 7.071000 23.709999 18.236000 # C
639 1 9.685000 19.641001 17.294001 # C
640 1 7.865000 17.781000 21.224001 # C
641 1 6.826000 17.863001 22.167999 # C
642 1 14.618000 21.507999 22.177999 # C
643 1 15.117000 20.132999 22.132999 # C
644 1 14.505000 19.152000 19.773001 # C
645 1 15.190000 19.183001 21.033001 # C
646 1 21.240999 11.721000 9.657000 # C
647 1 20.976999 10.430000 9.014000 # C
648 1 20.490999 10.500000 7.695000 # C
649 1 22.554001 6.748000 5.371000 # C
650 1 21.028999 8.110000 6.710000 # C
651 1 20.443001 9.428000 6.735000 # C
652 1 19.981001 11.816000 7.330000 # C
653 1 18.955000 11.826000 6.352000 # C
654 1 21.569000 7.756000 5.409000 # C
655 1 19.750000 5.897000 9.340000 # C
656 1 18.709999 5.979000 10.284000 # C
657 1 2.734000 9.623000 10.294000 # C
658 1 3.233000 8.249000 10.249000 # C
659 1 2.621000 7.268000 7.888000 # C
660 1 3.306000 7.298000 9.149000 # C
661 1 14.289000 0.152000 21.541000 # C
662 1 14.552000 1.443000 20.898001 # C
663 1 15.039000 1.373000 19.579000 # C
664 1 12.976000 5.125000 17.256001 # C
665 1 14.500000 3.764000 18.594000 # C
666 1 15.087000 2.445000 18.618999 # C
667 1 15.549000 0.058000 19.214001 # C
668 1 16.573999 0.048000 18.236000 # C
669 1 13.960000 4.117000 17.294001 # C
670 1 15.780000 5.977000 21.224001 # C
671 1 16.820000 5.895000 22.167999 # C
672 1 9.027000 2.250000 22.177999 # C
673 1 8.528000 3.625000 22.132999 # C
674 1 9.141000 4.605000 19.773001 # C
675 1 8.455000 4.575000 21.033001 # C
676 1 2.405000 12.037000 9.657000 # C
677 1 2.668000 13.327000 9.014000 # C
678 1 3.155000 13.258000 7.695000 # C
679 1 1.092000 17.009001 5.371000 # C
680 1 2.616000 15.648000 6.710000 # C
681 1 3.203000 14.330000 6.735000 # C
682 1 3.665000 11.942000 7.330000 # C
683 1 4.690000 11.932000 6.352000 # C
684 1 2.076000 16.000999 5.409000 # C
685 1 3.896000 17.861000 9.340000 # C
686 1 4.936000 17.778999 10.284000 # C
687 1 20.912001 14.134000 10.294000 # C
688 1 20.412001 15.509000 10.249000 # C
689 1 21.025000 16.490000 7.888000 # C
690 1 20.339001 16.459000 9.149000 # C
691 1 14.289000 23.605000 1.450000 # C
692 1 14.552000 22.315001 2.093000 # C
693 1 15.039000 22.384001 3.412000 # C
694 1 12.976000 18.632999 5.735000 # C
695 1 14.500000 19.993999 4.397000 # C
696 1 15.087000 21.312000 4.372000 # C
697 1 15.549000 23.700001 3.777000 # C
698 1 16.573999 23.709999 4.755000 # C
699 1 13.960000 19.641001 5.697000 # C
700 1 15.780000 17.781000 1.767000 # C
701 1 16.820000 17.863001 0.823000 # C
702 1 9.027000 21.507999 0.813000 # C
703 1 8.528000 20.132999 0.858000 # C
704 1 9.141000 19.152000 3.219000 # C
705 1 8.455000 19.183001 1.958000 # C
706 1 2.405000 11.721000 13.334000 # C
707 1 2.668000 10.430000 13.977000 # C
708 1 3.155000 10.500000 15.296000 # C
709 1 1.092000 6.748000 17.620001 # C
710 1 2.616000 8.110000 16.281000 # C
711 1 3.203000 9.428000 16.256001 # C
712 1 3.665000 11.816000 15.661000 # C
713 1 4.690000 11.826000 16.639000 # C
714 1 2.076000 7.756000 17.582001 # C
715 1 3.896000 5.897000 13.651000 # C
716 1 4.936000 5.979000 12.707000 # C
717 1 20.912001 9.623000 12.697000 # C
718 1 20.412001 8.249000 12.742000 # C
719 1 21.025000 7.268000 15.103000 # C
720 1 20.339001 7.298000 13.842000 # C
721 1 0.417000 0.473000 9.313000 # C
722 1 12.301000 12.357000 21.197001 # C
723 1 23.229000 23.285000 9.313000 # C
724 1 11.345000 11.401000 21.197001 # C
725 1 23.229000 0.473000 13.679000 # C
726 1 11.345000 12.357000 1.795000 # C
727 1 0.417000 23.285000 13.679000 # C
728 1 12.301000 11.401000 1.795000 # C
729 1 9.640000 0.473000 0.089000 # C
730 1 21.524000 12.357000 11.974000 # C
731 1 9.640000 23.285000 22.902000 # C
732 1 21.524000 11.401000 11.017000 # C
733 1 14.006000 23.285000 0.089000 # C
734 1 2.122000 11.401000 11.974000 # C
735 1 14.006000 0.473000 22.902000 # C
736 1 2.122000 12.357000 11.017000 # C
737 1 0.417000 9.696000 0.089000 # C
738 1 12.301000 21.580000 11.974000 # C
739 1 23.229000 9.696000 22.902000 # C
740 1 11.345000 21.580000 11.017000 # C
741 1 0.417000 14.062000 22.902000 # C
742 1 12.301000 2.178000 11.017000 # C
743 1 23.229000 14.062000 0.089000 # C
744 1 11.345000 2.178000 11.974000 # C

