LAMMPS data file. CGCMM style. atom_style atomic generated by VMD/TopoTools v1.6 on Wed Oct 05 14:45:57 EDT 2016
 768 atoms
 0 bonds
 0 angles
 0 dihedrals
 0 impropers
 1 atom types
 0 bond types
 0 angle types
 0 dihedral types
 0 improper types
 -14.71526 14.71526  xlo xhi
 -14.71526 14.71526  ylo yhi
 -14.71526 14.71526  zlo zhi

# Pair Coeffs
#
# 1  C

 Masses

 1 12.010700 # C

 Atoms

1 1 5.528259 5.254956 12.002748 # C
2 1 9.112484 2.598409 9.277804 # C
3 1 3.085447 6.658930 13.258435 # C
4 1 6.694701 2.968983 13.350688 # C
5 1 6.338490 6.205635 9.482893 # C
6 1 7.887915 1.245578 11.583843 # C
7 1 11.594701 1.377133 7.838462 # C
8 1 8.295163 5.124223 8.376168 # C
9 1 6.509767 4.418721 11.478717 # C
10 1 4.823604 6.269472 11.295819 # C
11 1 5.192875 5.120329 13.329215 # C
12 1 9.820456 3.322059 8.267287 # C
13 1 8.121316 3.103280 10.132969 # C
14 1 9.468916 1.282867 9.369269 # C
15 1 1.629009 7.065592 13.934478 # C
16 1 4.081073 5.938295 13.953318 # C
17 1 3.492594 6.855479 11.927403 # C
18 1 5.966227 4.029168 14.005257 # C
19 1 7.077896 1.560151 13.974792 # C
20 1 6.902857 3.223909 12.150615 # C
21 1 5.232050 6.685185 10.105436 # C
22 1 7.318265 4.325431 10.249091 # C
23 1 6.739962 6.810233 8.368775 # C
24 1 7.471087 0.636459 13.026432 # C
25 1 8.662783 0.609120 10.476147 # C
26 1 7.702880 2.424197 11.332130 # C
27 1 10.615486 0.673747 8.535374 # C
28 1 7.319530 5.090611 9.495588 # C
29 1 -5.528259 -5.254956 12.002748 # C
30 1 -5.528259 5.254956 -12.002748 # C
31 1 -5.528259 5.254956 12.002748 # C
32 1 -5.254956 -12.002748 -5.528259 # C
33 1 -5.254956 -12.002748 5.528259 # C
34 1 -5.254956 12.002748 -5.528259 # C
35 1 -5.254956 12.002748 5.528259 # C
36 1 -12.002748 -5.528259 -5.254956 # C
37 1 -12.002748 -5.528259 5.254956 # C
38 1 -12.002748 5.528259 -5.254956 # C
39 1 -12.002748 5.528259 5.254956 # C
40 1 12.002748 -5.528259 -5.254956 # C
41 1 12.002748 -5.528259 5.254956 # C
42 1 12.002748 5.528259 -5.254956 # C
43 1 12.002748 5.528259 5.254956 # C
44 1 5.254956 -12.002748 -5.528259 # C
45 1 5.254956 -12.002748 5.528259 # C
46 1 5.254956 12.002748 -5.528259 # C
47 1 5.254956 12.002748 5.528259 # C
48 1 5.528259 -5.254956 -12.002748 # C
49 1 5.528259 -5.254956 12.002748 # C
50 1 5.528259 5.254956 -12.002748 # C
51 1 -5.528259 -5.254956 -12.002748 # C
52 1 -9.112484 -2.598409 9.277804 # C
53 1 -9.112484 2.598409 -9.277804 # C
54 1 -9.112484 2.598409 9.277804 # C
55 1 -2.598409 -9.277804 -9.112484 # C
56 1 -2.598409 -9.277804 9.112484 # C
57 1 -2.598409 9.277804 -9.112484 # C
58 1 -2.598409 9.277804 9.112484 # C
59 1 -9.277804 -9.112484 -2.598409 # C
60 1 -9.277804 -9.112484 2.598409 # C
61 1 -9.277804 9.112484 -2.598409 # C
62 1 -9.277804 9.112484 2.598409 # C
63 1 9.277804 -9.112484 -2.598409 # C
64 1 9.277804 -9.112484 2.598409 # C
65 1 9.277804 9.112484 -2.598409 # C
66 1 9.277804 9.112484 2.598409 # C
67 1 2.598409 -9.277804 -9.112484 # C
68 1 2.598409 -9.277804 9.112484 # C
69 1 2.598409 9.277804 -9.112484 # C
70 1 2.598409 9.277804 9.112484 # C
71 1 9.112484 -2.598409 -9.277804 # C
72 1 9.112484 -2.598409 9.277804 # C
73 1 9.112484 2.598409 -9.277804 # C
74 1 -9.112484 -2.598409 -9.277804 # C
75 1 -3.085447 -6.658930 13.258435 # C
76 1 -3.085447 6.658930 -13.258435 # C
77 1 -3.085447 6.658930 13.258435 # C
78 1 -6.658930 -13.258435 -3.085447 # C
79 1 -6.658930 -13.258435 3.085447 # C
80 1 -6.658930 13.258435 -3.085447 # C
81 1 -6.658930 13.258435 3.085447 # C
82 1 -13.258435 -3.085447 -6.658930 # C
83 1 -13.258435 -3.085447 6.658930 # C
84 1 -13.258435 3.085447 -6.658930 # C
85 1 -13.258435 3.085447 6.658930 # C
86 1 13.258435 -3.085447 -6.658930 # C
87 1 13.258435 -3.085447 6.658930 # C
88 1 13.258435 3.085447 -6.658930 # C
89 1 13.258435 3.085447 6.658930 # C
90 1 6.658930 -13.258435 -3.085447 # C
91 1 6.658930 -13.258435 3.085447 # C
92 1 6.658930 13.258435 -3.085447 # C
93 1 6.658930 13.258435 3.085447 # C
94 1 3.085447 -6.658930 -13.258435 # C
95 1 3.085447 -6.658930 13.258435 # C
96 1 3.085447 6.658930 -13.258435 # C
97 1 -3.085447 -6.658930 -13.258435 # C
98 1 -6.694701 -2.968983 13.350688 # C
99 1 -6.694701 2.968983 -13.350688 # C
100 1 -6.694701 2.968983 13.350688 # C
101 1 -2.968983 -13.350688 -6.694701 # C
102 1 -2.968983 -13.350688 6.694701 # C
103 1 -2.968983 13.350688 -6.694701 # C
104 1 -2.968983 13.350688 6.694701 # C
105 1 -13.350688 -6.694701 -2.968983 # C
106 1 -13.350688 -6.694701 2.968983 # C
107 1 -13.350688 6.694701 -2.968983 # C
108 1 -13.350688 6.694701 2.968983 # C
109 1 13.350688 -6.694701 -2.968983 # C
110 1 13.350688 -6.694701 2.968983 # C
111 1 13.350688 6.694701 -2.968983 # C
112 1 13.350688 6.694701 2.968983 # C
113 1 2.968983 -13.350688 -6.694701 # C
114 1 2.968983 -13.350688 6.694701 # C
115 1 2.968983 13.350688 -6.694701 # C
116 1 2.968983 13.350688 6.694701 # C
117 1 6.694701 -2.968983 -13.350688 # C
118 1 6.694701 -2.968983 13.350688 # C
119 1 6.694701 2.968983 -13.350688 # C
120 1 -6.694701 -2.968983 -13.350688 # C
121 1 -6.338490 -6.205635 9.482893 # C
122 1 -6.338490 6.205635 -9.482893 # C
123 1 -6.338490 6.205635 9.482893 # C
124 1 -6.205635 -9.482893 -6.338490 # C
125 1 -6.205635 -9.482893 6.338490 # C
126 1 -6.205635 9.482893 -6.338490 # C
127 1 -6.205635 9.482893 6.338490 # C
128 1 -9.482893 -6.338490 -6.205635 # C
129 1 -9.482893 -6.338490 6.205635 # C
130 1 -9.482893 6.338490 -6.205635 # C
131 1 -9.482893 6.338490 6.205635 # C
132 1 9.482893 -6.338490 -6.205635 # C
133 1 9.482893 -6.338490 6.205635 # C
134 1 9.482893 6.338490 -6.205635 # C
135 1 9.482893 6.338490 6.205635 # C
136 1 6.205635 -9.482893 -6.338490 # C
137 1 6.205635 -9.482893 6.338490 # C
138 1 6.205635 9.482893 -6.338490 # C
139 1 6.205635 9.482893 6.338490 # C
140 1 6.338490 -6.205635 -9.482893 # C
141 1 6.338490 -6.205635 9.482893 # C
142 1 6.338490 6.205635 -9.482893 # C
143 1 -6.338490 -6.205635 -9.482893 # C
144 1 -7.887915 -1.245578 11.583843 # C
145 1 -7.887915 1.245578 -11.583843 # C
146 1 -7.887915 1.245578 11.583843 # C
147 1 -1.245578 -11.583843 -7.887915 # C
148 1 -1.245578 -11.583843 7.887915 # C
149 1 -1.245578 11.583843 -7.887915 # C
150 1 -1.245578 11.583843 7.887915 # C
151 1 -11.583843 -7.887915 -1.245578 # C
152 1 -11.583843 -7.887915 1.245578 # C
153 1 -11.583843 7.887915 -1.245578 # C
154 1 -11.583843 7.887915 1.245578 # C
155 1 11.583843 -7.887915 -1.245578 # C
156 1 11.583843 -7.887915 1.245578 # C
157 1 11.583843 7.887915 -1.245578 # C
158 1 11.583843 7.887915 1.245578 # C
159 1 1.245578 -11.583843 -7.887915 # C
160 1 1.245578 -11.583843 7.887915 # C
161 1 1.245578 11.583843 -7.887915 # C
162 1 1.245578 11.583843 7.887915 # C
163 1 7.887915 -1.245578 -11.583843 # C
164 1 7.887915 -1.245578 11.583843 # C
165 1 7.887915 1.245578 -11.583843 # C
166 1 -7.887915 -1.245578 -11.583843 # C
167 1 -11.594701 -1.377133 7.838462 # C
168 1 -11.594701 1.377133 -7.838462 # C
169 1 -11.594701 1.377133 7.838462 # C
170 1 -1.377133 -7.838462 -11.594701 # C
171 1 -1.377133 -7.838462 11.594701 # C
172 1 -1.377133 7.838462 -11.594701 # C
173 1 -1.377133 7.838462 11.594701 # C
174 1 -7.838462 -11.594701 -1.377133 # C
175 1 -7.838462 -11.594701 1.377133 # C
176 1 -7.838462 11.594701 -1.377133 # C
177 1 -7.838462 11.594701 1.377133 # C
178 1 7.838462 -11.594701 -1.377133 # C
179 1 7.838462 -11.594701 1.377133 # C
180 1 7.838462 11.594701 -1.377133 # C
181 1 7.838462 11.594701 1.377133 # C
182 1 1.377133 -7.838462 -11.594701 # C
183 1 1.377133 -7.838462 11.594701 # C
184 1 1.377133 7.838462 -11.594701 # C
185 1 1.377133 7.838462 11.594701 # C
186 1 11.594701 -1.377133 -7.838462 # C
187 1 11.594701 -1.377133 7.838462 # C
188 1 11.594701 1.377133 -7.838462 # C
189 1 -11.594701 -1.377133 -7.838462 # C
190 1 -8.295163 -5.124223 8.376168 # C
191 1 -8.295163 5.124223 -8.376168 # C
192 1 -8.295163 5.124223 8.376168 # C
193 1 -5.124223 -8.376168 -8.295163 # C
194 1 -5.124223 -8.376168 8.295163 # C
195 1 -5.124223 8.376168 -8.295163 # C
196 1 -5.124223 8.376168 8.295163 # C
197 1 -8.376168 -8.295163 -5.124223 # C
198 1 -8.376168 -8.295163 5.124223 # C
199 1 -8.376168 8.295163 -5.124223 # C
200 1 -8.376168 8.295163 5.124223 # C
201 1 8.376168 -8.295163 -5.124223 # C
202 1 8.376168 -8.295163 5.124223 # C
203 1 8.376168 8.295163 -5.124223 # C
204 1 8.376168 8.295163 5.124223 # C
205 1 5.124223 -8.376168 -8.295163 # C
206 1 5.124223 -8.376168 8.295163 # C
207 1 5.124223 8.376168 -8.295163 # C
208 1 5.124223 8.376168 8.295163 # C
209 1 8.295163 -5.124223 -8.376168 # C
210 1 8.295163 -5.124223 8.376168 # C
211 1 8.295163 5.124223 -8.376168 # C
212 1 -8.295163 -5.124223 -8.376168 # C
213 1 -6.509767 -4.418721 11.478717 # C
214 1 -6.509767 4.418721 -11.478717 # C
215 1 -6.509767 4.418721 11.478717 # C
216 1 -4.418721 -11.478717 -6.509767 # C
217 1 -4.418721 -11.478717 6.509767 # C
218 1 -4.418721 11.478717 -6.509767 # C
219 1 -4.418721 11.478717 6.509767 # C
220 1 -11.478717 -6.509767 -4.418721 # C
221 1 -11.478717 -6.509767 4.418721 # C
222 1 -11.478717 6.509767 -4.418721 # C
223 1 -11.478717 6.509767 4.418721 # C
224 1 11.478717 -6.509767 -4.418721 # C
225 1 11.478717 -6.509767 4.418721 # C
226 1 11.478717 6.509767 -4.418721 # C
227 1 11.478717 6.509767 4.418721 # C
228 1 4.418721 -11.478717 -6.509767 # C
229 1 4.418721 -11.478717 6.509767 # C
230 1 4.418721 11.478717 -6.509767 # C
231 1 4.418721 11.478717 6.509767 # C
232 1 6.509767 -4.418721 -11.478717 # C
233 1 6.509767 -4.418721 11.478717 # C
234 1 6.509767 4.418721 -11.478717 # C
235 1 -6.509767 -4.418721 -11.478717 # C
236 1 -4.823604 -6.269472 11.295819 # C
237 1 -4.823604 6.269472 -11.295819 # C
238 1 -4.823604 6.269472 11.295819 # C
239 1 -6.269472 -11.295819 -4.823604 # C
240 1 -6.269472 -11.295819 4.823604 # C
241 1 -6.269472 11.295819 -4.823604 # C
242 1 -6.269472 11.295819 4.823604 # C
243 1 -11.295819 -4.823604 -6.269472 # C
244 1 -11.295819 -4.823604 6.269472 # C
245 1 -11.295819 4.823604 -6.269472 # C
246 1 -11.295819 4.823604 6.269472 # C
247 1 11.295819 -4.823604 -6.269472 # C
248 1 11.295819 -4.823604 6.269472 # C
249 1 11.295819 4.823604 -6.269472 # C
250 1 11.295819 4.823604 6.269472 # C
251 1 6.269472 -11.295819 -4.823604 # C
252 1 6.269472 -11.295819 4.823604 # C
253 1 6.269472 11.295819 -4.823604 # C
254 1 6.269472 11.295819 4.823604 # C
255 1 4.823604 -6.269472 -11.295819 # C
256 1 4.823604 -6.269472 11.295819 # C
257 1 4.823604 6.269472 -11.295819 # C
258 1 -4.823604 -6.269472 -11.295819 # C
259 1 -5.192875 -5.120328 13.329214 # C
260 1 -5.192875 5.120328 -13.329214 # C
261 1 -5.192875 5.120328 13.329214 # C
262 1 -5.120328 -13.329214 -5.192875 # C
263 1 -5.120328 -13.329214 5.192875 # C
264 1 -5.120328 13.329214 -5.192875 # C
265 1 -5.120328 13.329215 5.192875 # C
266 1 -13.329214 -5.192875 -5.120328 # C
267 1 -13.329214 -5.192875 5.120328 # C
268 1 -13.329214 5.192875 -5.120328 # C
269 1 -13.329214 5.192875 5.120328 # C
270 1 13.329214 -5.192875 -5.120328 # C
271 1 13.329214 -5.192875 5.120328 # C
272 1 13.329214 5.192875 -5.120328 # C
273 1 13.329214 5.192875 5.120328 # C
274 1 5.120328 -13.329214 -5.192875 # C
275 1 5.120328 -13.329214 5.192875 # C
276 1 5.120328 13.329214 -5.192875 # C
277 1 5.120328 13.329215 5.192875 # C
278 1 5.192875 -5.120328 -13.329214 # C
279 1 5.192875 -5.120328 13.329214 # C
280 1 5.192875 5.120328 -13.329214 # C
281 1 -5.192875 -5.120328 -13.329214 # C
282 1 -9.820456 -3.322059 8.267287 # C
283 1 -9.820456 3.322059 -8.267287 # C
284 1 -9.820456 3.322059 8.267287 # C
285 1 -3.322059 -8.267287 -9.820456 # C
286 1 -3.322059 -8.267287 9.820456 # C
287 1 -3.322059 8.267287 -9.820456 # C
288 1 -3.322059 8.267287 9.820456 # C
289 1 -8.267287 -9.820456 -3.322059 # C
290 1 -8.267287 -9.820456 3.322059 # C
291 1 -8.267287 9.820456 -3.322059 # C
292 1 -8.267287 9.820456 3.322059 # C
293 1 8.267287 -9.820456 -3.322059 # C
294 1 8.267287 -9.820456 3.322059 # C
295 1 8.267287 9.820456 -3.322059 # C
296 1 8.267287 9.820456 3.322059 # C
297 1 3.322059 -8.267287 -9.820456 # C
298 1 3.322059 -8.267287 9.820456 # C
299 1 3.322059 8.267287 -9.820456 # C
300 1 3.322059 8.267287 9.820456 # C
301 1 9.820456 -3.322059 -8.267287 # C
302 1 9.820456 -3.322059 8.267287 # C
303 1 9.820456 3.322059 -8.267287 # C
304 1 -9.820456 -3.322059 -8.267287 # C
305 1 -8.121316 -3.103280 10.132969 # C
306 1 -8.121316 3.103280 -10.132969 # C
307 1 -8.121316 3.103280 10.132969 # C
308 1 -3.103280 -10.132969 -8.121316 # C
309 1 -3.103280 -10.132969 8.121316 # C
310 1 -3.103280 10.132969 -8.121316 # C
311 1 -3.103280 10.132969 8.121316 # C
312 1 -10.132969 -8.121316 -3.103280 # C
313 1 -10.132969 -8.121316 3.103280 # C
314 1 -10.132969 8.121316 -3.103280 # C
315 1 -10.132969 8.121316 3.103280 # C
316 1 10.132969 -8.121316 -3.103280 # C
317 1 10.132969 -8.121316 3.103280 # C
318 1 10.132969 8.121316 -3.103280 # C
319 1 10.132969 8.121316 3.103280 # C
320 1 3.103280 -10.132969 -8.121316 # C
321 1 3.103280 -10.132969 8.121316 # C
322 1 3.103280 10.132969 -8.121316 # C
323 1 3.103280 10.132969 8.121316 # C
324 1 8.121316 -3.103280 -10.132969 # C
325 1 8.121316 -3.103280 10.132969 # C
326 1 8.121316 3.103280 -10.132969 # C
327 1 -8.121316 -3.103280 -10.132969 # C
328 1 -9.468916 -1.282867 9.369269 # C
329 1 -9.468916 1.282867 -9.369269 # C
330 1 -9.468916 1.282867 9.369269 # C
331 1 -1.282867 -9.369269 -9.468916 # C
332 1 -1.282867 -9.369269 9.468916 # C
333 1 -1.282867 9.369269 -9.468916 # C
334 1 -1.282867 9.369269 9.468916 # C
335 1 -9.369269 -9.468916 -1.282867 # C
336 1 -9.369269 -9.468916 1.282867 # C
337 1 -9.369269 9.468916 -1.282867 # C
338 1 -9.369269 9.468916 1.282867 # C
339 1 9.369269 -9.468916 -1.282867 # C
340 1 9.369269 -9.468916 1.282867 # C
341 1 9.369269 9.468916 -1.282867 # C
342 1 9.369269 9.468916 1.282867 # C
343 1 1.282867 -9.369269 -9.468916 # C
344 1 1.282867 -9.369269 9.468916 # C
345 1 1.282867 9.369269 -9.468916 # C
346 1 1.282867 9.369269 9.468916 # C
347 1 9.468916 -1.282867 -9.369269 # C
348 1 9.468916 -1.282867 9.369269 # C
349 1 9.468916 1.282867 -9.369269 # C
350 1 -9.468916 -1.282867 -9.369269 # C
351 1 -1.629009 -7.065592 13.934478 # C
352 1 -1.629009 7.065592 -13.934478 # C
353 1 -1.629009 7.065592 13.934478 # C
354 1 -7.065592 -13.934478 -1.629009 # C
355 1 -7.065592 -13.934478 1.629009 # C
356 1 -7.065592 13.934478 -1.629009 # C
357 1 -7.065592 13.934478 1.629009 # C
358 1 -13.934478 -1.629009 -7.065592 # C
359 1 -13.934478 -1.629009 7.065592 # C
360 1 -13.934478 1.629009 -7.065592 # C
361 1 -13.934478 1.629009 7.065592 # C
362 1 13.934478 -1.629009 -7.065592 # C
363 1 13.934478 -1.629009 7.065592 # C
364 1 13.934478 1.629009 -7.065592 # C
365 1 13.934478 1.629009 7.065592 # C
366 1 7.065592 -13.934478 -1.629009 # C
367 1 7.065592 -13.934478 1.629009 # C
368 1 7.065592 13.934478 -1.629009 # C
369 1 7.065592 13.934478 1.629009 # C
370 1 1.629009 -7.065592 -13.934478 # C
371 1 1.629009 -7.065592 13.934478 # C
372 1 1.629009 7.065592 -13.934478 # C
373 1 -1.629009 -7.065592 -13.934478 # C
374 1 -4.081073 -5.938295 13.953318 # C
375 1 -4.081073 5.938295 -13.953318 # C
376 1 -4.081073 5.938295 13.953318 # C
377 1 -5.938295 -13.953318 -4.081073 # C
378 1 -5.938295 -13.953318 4.081073 # C
379 1 -5.938295 13.953318 -4.081073 # C
380 1 -5.938295 13.953318 4.081073 # C
381 1 -13.953318 -4.081073 -5.938295 # C
382 1 -13.953318 -4.081073 5.938295 # C
383 1 -13.953318 4.081073 -5.938295 # C
384 1 -13.953318 4.081073 5.938295 # C
385 1 13.953318 -4.081073 -5.938295 # C
386 1 13.953318 -4.081073 5.938295 # C
387 1 13.953318 4.081073 -5.938295 # C
388 1 13.953318 4.081073 5.938295 # C
389 1 5.938295 -13.953318 -4.081073 # C
390 1 5.938295 -13.953318 4.081073 # C
391 1 5.938295 13.953318 -4.081073 # C
392 1 5.938295 13.953318 4.081073 # C
393 1 4.081073 -5.938295 -13.953318 # C
394 1 4.081073 -5.938295 13.953318 # C
395 1 4.081073 5.938295 -13.953318 # C
396 1 -4.081073 -5.938295 -13.953318 # C
397 1 -3.492594 -6.855479 11.927403 # C
398 1 -3.492594 6.855479 -11.927403 # C
399 1 -3.492594 6.855479 11.927403 # C
400 1 -6.855479 -11.927403 -3.492594 # C
401 1 -6.855479 -11.927403 3.492594 # C
402 1 -6.855479 11.927403 -3.492594 # C
403 1 -6.855479 11.927403 3.492594 # C
404 1 -11.927403 -3.492594 -6.855479 # C
405 1 -11.927403 -3.492594 6.855479 # C
406 1 -11.927403 3.492594 -6.855479 # C
407 1 -11.927403 3.492594 6.855479 # C
408 1 11.927403 -3.492594 -6.855479 # C
409 1 11.927403 -3.492594 6.855479 # C
410 1 11.927403 3.492594 -6.855479 # C
411 1 11.927403 3.492594 6.855479 # C
412 1 6.855479 -11.927403 -3.492594 # C
413 1 6.855479 -11.927403 3.492594 # C
414 1 6.855479 11.927403 -3.492594 # C
415 1 6.855479 11.927403 3.492594 # C
416 1 3.492594 -6.855479 -11.927403 # C
417 1 3.492594 -6.855479 11.927403 # C
418 1 3.492594 6.855479 -11.927403 # C
419 1 -3.492594 -6.855479 -11.927403 # C
420 1 -5.966227 -4.029168 14.005257 # C
421 1 -5.966227 4.029168 -14.005257 # C
422 1 -5.966227 4.029168 14.005257 # C
423 1 -4.029168 -14.005257 -5.966227 # C
424 1 -4.029168 -14.005257 5.966227 # C
425 1 -4.029168 14.005257 -5.966227 # C
426 1 -4.029168 14.005257 5.966227 # C
427 1 -14.005257 -5.966227 -4.029168 # C
428 1 -14.005257 -5.966227 4.029168 # C
429 1 -14.005257 5.966227 -4.029168 # C
430 1 -14.005257 5.966227 4.029168 # C
431 1 14.005257 -5.966227 -4.029168 # C
432 1 14.005257 -5.966227 4.029168 # C
433 1 14.005257 5.966227 -4.029168 # C
434 1 14.005257 5.966227 4.029168 # C
435 1 4.029168 -14.005257 -5.966227 # C
436 1 4.029168 -14.005257 5.966227 # C
437 1 4.029168 14.005257 -5.966227 # C
438 1 4.029168 14.005257 5.966227 # C
439 1 5.966227 -4.029168 -14.005257 # C
440 1 5.966227 -4.029168 14.005257 # C
441 1 5.966227 4.029168 -14.005257 # C
442 1 -5.966227 -4.029168 -14.005257 # C
443 1 -7.077896 -1.560151 13.974792 # C
444 1 -7.077896 1.560151 -13.974792 # C
445 1 -7.077896 1.560151 13.974792 # C
446 1 -1.560151 -13.974792 -7.077896 # C
447 1 -1.560151 -13.974792 7.077896 # C
448 1 -1.560151 13.974792 -7.077896 # C
449 1 -1.560151 13.974792 7.077896 # C
450 1 -13.974792 -7.077896 -1.560151 # C
451 1 -13.974792 -7.077896 1.560151 # C
452 1 -13.974792 7.077896 -1.560151 # C
453 1 -13.974792 7.077896 1.560151 # C
454 1 13.974792 -7.077896 -1.560151 # C
455 1 13.974792 -7.077896 1.560151 # C
456 1 13.974792 7.077896 -1.560151 # C
457 1 13.974792 7.077896 1.560151 # C
458 1 1.560151 -13.974792 -7.077896 # C
459 1 1.560151 -13.974792 7.077896 # C
460 1 1.560151 13.974792 -7.077896 # C
461 1 1.560151 13.974792 7.077896 # C
462 1 7.077896 -1.560151 -13.974792 # C
463 1 7.077896 -1.560151 13.974792 # C
464 1 7.077896 1.560151 -13.974792 # C
465 1 -7.077896 -1.560151 -13.974792 # C
466 1 -6.902857 -3.223909 12.150615 # C
467 1 -6.902857 3.223909 -12.150615 # C
468 1 -6.902857 3.223909 12.150615 # C
469 1 -3.223909 -12.150615 -6.902857 # C
470 1 -3.223909 -12.150615 6.902857 # C
471 1 -3.223909 12.150615 -6.902857 # C
472 1 -3.223909 12.150615 6.902857 # C
473 1 -12.150615 -6.902857 -3.223909 # C
474 1 -12.150615 -6.902857 3.223909 # C
475 1 -12.150615 6.902857 -3.223909 # C
476 1 -12.150615 6.902857 3.223909 # C
477 1 12.150615 -6.902857 -3.223909 # C
478 1 12.150615 -6.902857 3.223909 # C
479 1 12.150615 6.902857 -3.223909 # C
480 1 12.150615 6.902857 3.223909 # C
481 1 3.223909 -12.150615 -6.902857 # C
482 1 3.223909 -12.150615 6.902857 # C
483 1 3.223909 12.150615 -6.902857 # C
484 1 3.223909 12.150615 6.902857 # C
485 1 6.902857 -3.223909 -12.150615 # C
486 1 6.902857 -3.223909 12.150615 # C
487 1 6.902857 3.223909 -12.150615 # C
488 1 -6.902857 -3.223909 -12.150615 # C
489 1 -5.232050 -6.685185 10.105436 # C
490 1 -5.232050 6.685185 -10.105436 # C
491 1 -5.232050 6.685185 10.105436 # C
492 1 -6.685185 -10.105436 -5.232050 # C
493 1 -6.685185 -10.105436 5.232050 # C
494 1 -6.685185 10.105436 -5.232050 # C
495 1 -6.685185 10.105436 5.232050 # C
496 1 -10.105436 -5.232050 -6.685185 # C
497 1 -10.105436 -5.232050 6.685185 # C
498 1 -10.105436 5.232050 -6.685185 # C
499 1 -10.105436 5.232050 6.685185 # C
500 1 10.105436 -5.232050 -6.685185 # C
501 1 10.105436 -5.232050 6.685185 # C
502 1 10.105436 5.232050 -6.685185 # C
503 1 10.105436 5.232050 6.685185 # C
504 1 6.685185 -10.105436 -5.232050 # C
505 1 6.685185 -10.105436 5.232050 # C
506 1 6.685185 10.105436 -5.232050 # C
507 1 6.685185 10.105436 5.232050 # C
508 1 5.232050 -6.685185 -10.105436 # C
509 1 5.232050 -6.685185 10.105436 # C
510 1 5.232050 6.685185 -10.105436 # C
511 1 -5.232050 -6.685185 -10.105436 # C
512 1 -7.318265 -4.325431 10.249091 # C
513 1 -7.318265 4.325431 -10.249091 # C
514 1 -7.318265 4.325431 10.249091 # C
515 1 -4.325431 -10.249091 -7.318265 # C
516 1 -4.325431 -10.249091 7.318265 # C
517 1 -4.325431 10.249091 -7.318265 # C
518 1 -4.325431 10.249091 7.318265 # C
519 1 -10.249091 -7.318265 -4.325431 # C
520 1 -10.249091 -7.318265 4.325431 # C
521 1 -10.249091 7.318265 -4.325431 # C
522 1 -10.249091 7.318265 4.325431 # C
523 1 10.249091 -7.318265 -4.325431 # C
524 1 10.249091 -7.318265 4.325431 # C
525 1 10.249091 7.318265 -4.325431 # C
526 1 10.249091 7.318265 4.325431 # C
527 1 4.325431 -10.249091 -7.318265 # C
528 1 4.325431 -10.249091 7.318265 # C
529 1 4.325431 10.249091 -7.318265 # C
530 1 4.325431 10.249091 7.318265 # C
531 1 7.318265 -4.325431 -10.249091 # C
532 1 7.318265 -4.325431 10.249091 # C
533 1 7.318265 4.325431 -10.249091 # C
534 1 -7.318265 -4.325431 -10.249091 # C
535 1 -6.739962 -6.810233 8.368775 # C
536 1 -6.739962 6.810233 -8.368775 # C
537 1 -6.739962 6.810233 8.368775 # C
538 1 -6.810233 -8.368775 -6.739962 # C
539 1 -6.810233 -8.368775 6.739962 # C
540 1 -6.810233 8.368775 -6.739962 # C
541 1 -6.810233 8.368775 6.739962 # C
542 1 -8.368775 -6.739962 -6.810233 # C
543 1 -8.368775 -6.739962 6.810233 # C
544 1 -8.368775 6.739962 -6.810233 # C
545 1 -8.368775 6.739962 6.810233 # C
546 1 8.368775 -6.739962 -6.810233 # C
547 1 8.368775 -6.739962 6.810233 # C
548 1 8.368775 6.739962 -6.810233 # C
549 1 8.368775 6.739962 6.810233 # C
550 1 6.810233 -8.368775 -6.739962 # C
551 1 6.810233 -8.368775 6.739962 # C
552 1 6.810233 8.368775 -6.739962 # C
553 1 6.810233 8.368775 6.739962 # C
554 1 6.739962 -6.810233 -8.368775 # C
555 1 6.739962 -6.810233 8.368775 # C
556 1 6.739962 6.810233 -8.368775 # C
557 1 -6.739962 -6.810233 -8.368775 # C
558 1 -7.471087 -0.636459 13.026432 # C
559 1 -7.471087 0.636459 -13.026432 # C
560 1 -7.471087 0.636459 13.026432 # C
561 1 -0.636459 -13.026432 -7.471087 # C
562 1 -0.636459 -13.026432 7.471087 # C
563 1 -0.636459 13.026432 -7.471087 # C
564 1 -0.636459 13.026432 7.471087 # C
565 1 -13.026432 -7.471087 -0.636459 # C
566 1 -13.026432 -7.471087 0.636459 # C
567 1 -13.026432 7.471087 -0.636459 # C
568 1 -13.026432 7.471087 0.636459 # C
569 1 13.026432 -7.471087 -0.636459 # C
570 1 13.026432 -7.471087 0.636459 # C
571 1 13.026432 7.471087 -0.636459 # C
572 1 13.026432 7.471087 0.636459 # C
573 1 0.636459 -13.026432 -7.471087 # C
574 1 0.636459 -13.026432 7.471087 # C
575 1 0.636459 13.026432 -7.471087 # C
576 1 0.636459 13.026432 7.471087 # C
577 1 7.471087 -0.636459 -13.026432 # C
578 1 7.471087 -0.636459 13.026432 # C
579 1 7.471087 0.636459 -13.026432 # C
580 1 -7.471087 -0.636459 -13.026432 # C
581 1 -8.662783 -0.609120 10.476147 # C
582 1 -8.662783 0.609120 -10.476147 # C
583 1 -8.662783 0.609120 10.476147 # C
584 1 -0.609120 -10.476147 -8.662783 # C
585 1 -0.609120 -10.476147 8.662783 # C
586 1 -0.609120 10.476147 -8.662783 # C
587 1 -0.609120 10.476147 8.662783 # C
588 1 -10.476147 -8.662783 -0.609120 # C
589 1 -10.476147 -8.662783 0.609120 # C
590 1 -10.476147 8.662783 -0.609120 # C
591 1 -10.476147 8.662783 0.609120 # C
592 1 10.476147 -8.662783 -0.609120 # C
593 1 10.476147 -8.662783 0.609120 # C
594 1 10.476147 8.662783 -0.609120 # C
595 1 10.476147 8.662783 0.609120 # C
596 1 0.609120 -10.476147 -8.662783 # C
597 1 0.609120 -10.476147 8.662783 # C
598 1 0.609120 10.476147 -8.662783 # C
599 1 0.609120 10.476147 8.662783 # C
600 1 8.662783 -0.609120 -10.476147 # C
601 1 8.662783 -0.609120 10.476147 # C
602 1 8.662783 0.609120 -10.476147 # C
603 1 -8.662783 -0.609120 -10.476147 # C
604 1 -7.702880 -2.424197 11.332130 # C
605 1 -7.702880 2.424197 -11.332130 # C
606 1 -7.702880 2.424197 11.332130 # C
607 1 -2.424197 -11.332130 -7.702880 # C
608 1 -2.424197 -11.332130 7.702880 # C
609 1 -2.424197 11.332130 -7.702880 # C
610 1 -2.424197 11.332130 7.702880 # C
611 1 -11.332130 -7.702880 -2.424197 # C
612 1 -11.332130 -7.702880 2.424197 # C
613 1 -11.332130 7.702880 -2.424197 # C
614 1 -11.332130 7.702880 2.424197 # C
615 1 11.332130 -7.702880 -2.424197 # C
616 1 11.332130 -7.702880 2.424197 # C
617 1 11.332130 7.702880 -2.424197 # C
618 1 11.332130 7.702880 2.424197 # C
619 1 2.424197 -11.332130 -7.702880 # C
620 1 2.424197 -11.332130 7.702880 # C
621 1 2.424197 11.332130 -7.702880 # C
622 1 2.424197 11.332130 7.702880 # C
623 1 7.702880 -2.424197 -11.332130 # C
624 1 7.702880 -2.424197 11.332130 # C
625 1 7.702880 2.424197 -11.332130 # C
626 1 -7.702880 -2.424197 -11.332130 # C
627 1 -10.615486 -0.673747 8.535374 # C
628 1 -10.615486 0.673747 -8.535374 # C
629 1 -10.615486 0.673747 8.535374 # C
630 1 -0.673747 -8.535374 -10.615486 # C
631 1 -0.673747 -8.535374 10.615486 # C
632 1 -0.673747 8.535374 -10.615486 # C
633 1 -0.673747 8.535374 10.615486 # C
634 1 -8.535374 -10.615486 -0.673747 # C
635 1 -8.535374 -10.615486 0.673747 # C
636 1 -8.535374 10.615486 -0.673747 # C
637 1 -8.535374 10.615486 0.673747 # C
638 1 8.535374 -10.615486 -0.673747 # C
639 1 8.535374 -10.615486 0.673747 # C
640 1 8.535374 10.615486 -0.673747 # C
641 1 8.535374 10.615486 0.673747 # C
642 1 0.673747 -8.535374 -10.615486 # C
643 1 0.673747 -8.535374 10.615486 # C
644 1 0.673747 8.535374 -10.615486 # C
645 1 0.673747 8.535374 10.615486 # C
646 1 10.615486 -0.673747 -8.535374 # C
647 1 10.615486 -0.673747 8.535374 # C
648 1 10.615486 0.673747 -8.535374 # C
649 1 -10.615486 -0.673747 -8.535374 # C
650 1 13.042043 0.703386 7.438762 # C
651 1 -13.042043 -0.703386 7.438762 # C
652 1 -13.042043 0.703386 -7.438762 # C
653 1 -13.042043 0.703386 7.438762 # C
654 1 -0.703386 -7.438762 -13.042043 # C
655 1 -0.703386 -7.438762 13.042043 # C
656 1 -0.703386 7.438762 -13.042043 # C
657 1 -0.703386 7.438762 13.042043 # C
658 1 -7.438762 -13.042043 -0.703386 # C
659 1 -7.438762 -13.042043 0.703386 # C
660 1 -7.438762 13.042043 -0.703386 # C
661 1 -7.438762 13.042043 0.703386 # C
662 1 7.438762 -13.042043 -0.703386 # C
663 1 7.438762 -13.042043 0.703386 # C
664 1 7.438762 13.042043 -0.703386 # C
665 1 7.438762 13.042043 0.703386 # C
666 1 0.703386 -7.438762 -13.042043 # C
667 1 0.703386 -7.438762 13.042043 # C
668 1 0.703386 7.438762 -13.042043 # C
669 1 0.703386 7.438762 13.042043 # C
670 1 13.042043 -0.703386 -7.438762 # C
671 1 13.042043 -0.703386 7.438762 # C
672 1 13.042043 0.703386 -7.438762 # C
673 1 -13.042043 -0.703386 -7.438762 # C
674 1 11.156103 2.709904 7.661840 # C
675 1 -11.156103 -2.709903 7.661840 # C
676 1 -11.156103 2.709903 -7.661840 # C
677 1 -11.156103 2.709903 7.661840 # C
678 1 -2.709903 -7.661840 -11.156103 # C
679 1 -2.709903 -7.661840 11.156103 # C
680 1 -2.709903 7.661840 -11.156103 # C
681 1 -2.709903 7.661840 11.156103 # C
682 1 -7.661840 -11.156103 -2.709903 # C
683 1 -7.661840 -11.156103 2.709903 # C
684 1 -7.661840 11.156103 -2.709903 # C
685 1 -7.661840 11.156103 2.709903 # C
686 1 7.661840 -11.156103 -2.709903 # C
687 1 7.661840 -11.156103 2.709903 # C
688 1 7.661840 11.156103 -2.709903 # C
689 1 7.661840 11.156103 2.709904 # C
690 1 2.709903 -7.661840 -11.156103 # C
691 1 2.709903 -7.661840 11.156103 # C
692 1 2.709903 7.661840 -11.156103 # C
693 1 2.709903 7.661840 11.156103 # C
694 1 11.156103 -2.709903 -7.661840 # C
695 1 11.156103 -2.709903 7.661840 # C
696 1 11.156103 2.709903 -7.661840 # C
697 1 -11.156103 -2.709903 -7.661840 # C
698 1 -7.319531 -5.090611 9.495588 # C
699 1 -7.319531 5.090611 -9.495588 # C
700 1 -7.319530 5.090611 9.495588 # C
701 1 -5.090611 -9.495588 -7.319531 # C
702 1 -5.090611 -9.495588 7.319531 # C
703 1 -5.090611 9.495588 -7.319531 # C
704 1 -5.090611 9.495588 7.319530 # C
705 1 -9.495588 -7.319531 -5.090611 # C
706 1 -9.495588 -7.319531 5.090611 # C
707 1 -9.495588 7.319531 -5.090611 # C
708 1 -9.495588 7.319530 5.090611 # C
709 1 9.495588 -7.319531 -5.090611 # C
710 1 9.495588 -7.319531 5.090611 # C
711 1 9.495588 7.319531 -5.090611 # C
712 1 9.495588 7.319531 5.090611 # C
713 1 5.090611 -9.495588 -7.319531 # C
714 1 5.090611 -9.495588 7.319531 # C
715 1 5.090611 9.495588 -7.319531 # C
716 1 5.090611 9.495588 7.319531 # C
717 1 7.319531 -5.090611 -9.495588 # C
718 1 7.319531 -5.090611 9.495588 # C
719 1 7.319531 5.090611 -9.495588 # C
720 1 -7.319531 -5.090611 -9.495588 # C
721 1 9.401373 4.513196 7.876638 # C
722 1 -9.401373 -4.513196 7.876638 # C
723 1 -9.401373 4.513196 -7.876638 # C
724 1 -9.401373 4.513196 7.876638 # C
725 1 -4.513196 -7.876638 -9.401373 # C
726 1 -4.513196 -7.876638 9.401373 # C
727 1 -4.513196 7.876638 -9.401373 # C
728 1 -4.513196 7.876638 9.401373 # C
729 1 -7.876638 -9.401373 -4.513196 # C
730 1 -7.876638 -9.401373 4.513196 # C
731 1 -7.876638 9.401373 -4.513196 # C
732 1 -7.876638 9.401373 4.513196 # C
733 1 7.876638 -9.401373 -4.513196 # C
734 1 7.876638 -9.401373 4.513196 # C
735 1 7.876638 9.401373 -4.513196 # C
736 1 7.876638 9.401373 4.513196 # C
737 1 4.513196 -7.876638 -9.401373 # C
738 1 4.513196 -7.876638 9.401373 # C
739 1 4.513196 7.876638 -9.401373 # C
740 1 4.513196 7.876638 9.401373 # C
741 1 9.401373 -4.513196 -7.876638 # C
742 1 9.401373 -4.513196 7.876638 # C
743 1 9.401373 4.513196 -7.876638 # C
744 1 -9.401373 -4.513196 -7.876638 # C
745 1 7.885108 6.244550 7.789313 # C
746 1 -7.885108 -6.244550 7.789313 # C
747 1 -7.885108 6.244550 -7.789313 # C
748 1 -7.885108 6.244550 7.789313 # C
749 1 -6.244550 -7.789313 -7.885108 # C
750 1 -6.244550 -7.789313 7.885108 # C
751 1 -6.244550 7.789313 -7.885108 # C
752 1 -6.244550 7.789313 7.885108 # C
753 1 -7.789313 -7.885108 -6.244550 # C
754 1 -7.789313 -7.885108 6.244550 # C
755 1 -7.789313 7.885108 -6.244550 # C
756 1 -7.789313 7.885108 6.244550 # C
757 1 7.789313 -7.885108 -6.244550 # C