LAMMPS data file. CGCMM style. atom_style atomic generated by VMD/TopoTools v1.6 on Tue May 03 11:33:37 EDT 2016
 2088 atoms
 0 bonds
 0 angles
 0 dihedrals
 0 impropers
 96 atom types
 0 bond types
 0 angle types
 0 dihedral types
 0 improper types
 0.866001 48.866001  xlo xhi
 0.170001 48.170001  ylo yhi
 0.676501 48.676501  zlo zhi

# Pair Coeffs
#
# 1  C
# 2  C10
# 3  C11
# 4  C12
# 5  C13
# 6  C14
# 7  C15
# 8  C16
# 9  C17
# 10  C18
# 11  C19
# 12  C20
# 13  C21
# 14  C22
# 15  C23
# 16  C24
# 17  C25
# 18  C26
# 19  C27
# 20  C28
# 21  C29
# 22  C3
# 23  C30
# 24  C31
# 25  C32
# 26  C33
# 27  C34
# 28  C35
# 29  C36
# 30  C37
# 31  C38
# 32  C39
# 33  C4
# 34  C40
# 35  C41
# 36  C42
# 37  C43
# 38  C44
# 39  C45
# 40  C46
# 41  C47
# 42  C48
# 43  C49
# 44  C5
# 45  C50
# 46  C51
# 47  C52
# 48  C53
# 49  C54
# 50  C55
# 51  C56
# 52  C57
# 53  C58
# 54  C59
# 55  C6
# 56  C60
# 57  C61
# 58  C62
# 59  C63
# 60  C64
# 61  C65
# 62  C66
# 63  C67
# 64  C68
# 65  C69
# 66  C70
# 67  C71
# 68  C72
# 69  C73
# 70  C74
# 71  C75
# 72  C76
# 73  C77
# 74  C78
# 75  C79
# 76  C80
# 77  C81
# 78  C82
# 79  C83
# 80  C84
# 81  C85
# 82  C86
# 83  C87
# 84  C88
# 85  C89
# 86  C9
# 87  C90
# 88  C91
# 89  C92
# 90  C93
# 91  C94
# 92  C95
# 93  C96
# 94  C97
# 95  C98
# 96  C99

 Masses

 1 12.010700 # C
 2 12.010700 # C10
 3 12.010700 # C11
 4 12.010700 # C12
 5 12.010700 # C13
 6 12.010700 # C14
 7 12.010700 # C15
 8 12.010700 # C16
 9 12.010700 # C17
 10 12.010700 # C18
 11 12.010700 # C19
 12 12.010700 # C20
 13 12.010700 # C21
 14 12.010700 # C22
 15 12.010700 # C23
 16 12.010700 # C24
 17 12.010700 # C25
 18 12.010700 # C26
 19 12.010700 # C27
 20 12.010700 # C28
 21 12.010700 # C29
 22 12.010700 # C3
 23 12.010700 # C30
 24 12.010700 # C31
 25 12.010700 # C32
 26 12.010700 # C33
 27 12.010700 # C34
 28 12.010700 # C35
 29 12.010700 # C36
 30 12.010700 # C37
 31 12.010700 # C38
 32 12.010700 # C39
 33 12.010700 # C4
 34 12.010700 # C40
 35 12.010700 # C41
 36 12.010700 # C42
 37 12.010700 # C43
 38 12.010700 # C44
 39 12.010700 # C45
 40 12.010700 # C46
 41 12.010700 # C47
 42 12.010700 # C48
 43 12.010700 # C49
 44 12.010700 # C5
 45 12.010700 # C50
 46 12.010700 # C51
 47 12.010700 # C52
 48 12.010700 # C53
 49 12.010700 # C54
 50 12.010700 # C55
 51 12.010700 # C56
 52 12.010700 # C57
 53 12.010700 # C58
 54 12.010700 # C59
 55 12.010700 # C6
 56 12.010700 # C60
 57 12.010700 # C61
 58 12.010700 # C62
 59 12.010700 # C63
 60 12.010700 # C64
 61 12.010700 # C65
 62 12.010700 # C66
 63 12.010700 # C67
 64 12.010700 # C68
 65 12.010700 # C69
 66 12.010700 # C70
 67 12.010700 # C71
 68 12.010700 # C72
 69 12.010700 # C73
 70 12.010700 # C74
 71 12.010700 # C75
 72 12.010700 # C76
 73 12.010700 # C77
 74 12.010700 # C78
 75 12.010700 # C79
 76 12.010700 # C80
 77 12.010700 # C81
 78 12.010700 # C82
 79 12.010700 # C83
 80 12.010700 # C84
 81 12.010700 # C85
 82 12.010700 # C86
 83 12.010700 # C87
 84 12.010700 # C88
 85 12.010700 # C89
 86 12.010700 # C9
 87 12.010700 # C90
 88 12.010700 # C91
 89 12.010700 # C92
 90 12.010700 # C93
 91 12.010700 # C94
 92 12.010700 # C95
 93 12.010700 # C96
 94 12.010700 # C97
 95 12.010700 # C98
 96 12.010700 # C99

 Atoms

1 1 37.716000 31.797001 35.791000 # C
2 1 16.660999 10.752000 14.729000 # C
3 22 11.806000 38.962002 20.326000 # C3
4 33 13.111000 37.657001 18.148001 # C4
5 44 10.353000 40.448002 23.969000 # C5
6 55 11.194000 39.587002 21.445999 # C6
7 1 12.015000 16.542999 35.791000 # C
8 1 33.070000 37.588001 14.729000 # C
9 86 37.924999 9.378000 20.326000 # C9
10 2 36.620998 10.683000 18.148001 # C10
11 3 39.379002 7.892000 23.969000 # C11
12 4 38.536999 8.753000 21.445999 # C12
13 1 12.016000 31.797001 13.561000 # C
14 1 33.070000 10.752000 34.624001 # C
15 7 37.924999 38.962002 29.027000 # C15
16 8 36.620998 37.657001 31.205000 # C16
17 9 39.379002 40.448002 25.384001 # C17
18 10 38.536999 39.587002 27.906000 # C18
19 1 37.716000 16.542999 13.561000 # C
20 1 16.660999 37.588001 34.624001 # C
21 13 11.806000 9.378000 29.027000 # C21
22 14 13.111000 10.683000 31.205000 # C22
23 15 10.353000 7.892000 25.384001 # C23
24 16 11.194000 8.753000 27.906000 # C24
25 1 35.980999 37.020000 32.303001 # C
26 1 14.918000 15.966000 11.259000 # C
27 19 20.514999 11.110000 39.469002 # C27
28 20 18.337000 12.415000 38.164001 # C28
29 21 24.158001 9.657000 40.953999 # C29
30 23 21.636000 10.499000 40.092999 # C30
31 1 35.980999 11.320000 17.049000 # C
32 1 14.918000 32.374001 38.094002 # C
33 26 20.514999 37.230000 9.884000 # C33
34 27 18.337000 35.924999 11.189000 # C34
35 28 24.158001 38.682999 8.399000 # C35
36 29 21.636000 37.841000 9.259000 # C36
37 1 13.751000 11.320000 32.303001 # C
38 1 34.813999 32.374001 11.259000 # C
39 32 29.216999 37.230000 39.469002 # C39
40 34 31.395000 35.924999 38.162998 # C40
41 35 25.573000 38.682999 40.953999 # C41
42 36 28.096001 37.841000 40.092999 # C42
43 1 13.751000 37.020000 17.049000 # C
44 1 34.813999 15.966000 38.094002 # C
45 39 29.216999 11.110000 9.884000 # C45
46 40 31.395000 12.415000 11.189000 # C46
47 41 25.573000 9.657000 8.399000 # C47
48 42 28.096001 10.499000 9.259000 # C48
49 1 32.493000 35.285000 37.527000 # C
50 1 11.448000 14.222000 16.472000 # C
51 46 39.658001 19.819000 11.617000 # C51
52 47 38.353001 17.641001 12.921000 # C52
53 48 41.144001 23.462000 10.163000 # C53
54 49 40.283001 20.940001 11.005000 # C54
55 1 17.239000 35.285000 11.826000 # C
56 1 38.284000 14.222000 32.881001 # C
57 52 10.073000 19.819000 37.736000 # C57
58 53 11.379000 17.641001 36.431000 # C58
59 54 8.588000 23.462000 39.189999 # C59
60 56 9.449000 20.940001 38.348000 # C60
61 1 32.493000 13.055000 11.826000 # C
62 1 11.448000 34.118000 32.881001 # C
63 59 39.658001 28.521000 37.736000 # C63
64 60 38.353001 30.698999 36.431000 # C64
65 61 41.144001 24.878000 39.189999 # C65
66 62 40.283001 27.400000 38.348000 # C66
67 1 17.239000 13.055000 37.527000 # C
68 1 38.284000 34.118000 16.472000 # C
69 65 10.073000 28.521000 11.617000 # C69
70 66 11.379000 30.698999 12.921000 # C70
71 67 8.588000 24.878000 10.163000 # C71
72 68 9.449000 27.400000 11.005000 # C72
73 1 32.493000 37.020000 13.561000 # C
74 1 11.448000 15.966000 34.624001 # C
75 71 39.658001 11.110000 29.027000 # C75
76 72 38.353001 12.415000 31.205000 # C76
77 73 41.144001 9.657000 25.384001 # C77
78 74 40.283001 10.499000 27.906000 # C78
79 1 17.239000 11.320000 13.561000 # C
80 1 38.283001 32.374001 34.624001 # C
81 77 10.073000 37.230000 29.027000 # C81
82 78 11.379000 35.924999 31.205000 # C82
83 79 8.588000 38.682999 25.384001 # C83
84 80 9.449000 37.841000 27.906000 # C84
85 1 32.493000 11.320000 35.791000 # C
86 1 11.448000 32.374001 14.729000 # C
87 83 39.658001 37.230000 20.326000 # C87
88 84 38.353001 35.924999 18.148001 # C88
89 85 41.144001 38.682999 23.969000 # C89
90 87 40.283001 37.841000 21.445999 # C90
91 1 17.239000 37.020000 35.791000 # C
92 1 38.283001 15.966000 14.729000 # C
93 90 10.073000 11.110000 20.326000 # C93
94 91 11.379000 12.415000 18.148001 # C94
95 92 8.588000 9.657000 23.969000 # C95
96 93 9.449000 10.499000 21.445999 # C96
97 1 37.716000 35.285000 17.049000 # C
98 1 16.660999 14.222000 38.094002 # C
99 96 11.806000 19.819000 9.884000 # C99
100 2 13.111000 17.641001 11.189000 # C10
101 2 10.353000 23.462000 8.399000 # C10
102 2 11.194000 20.940001 9.259000 # C10
103 1 12.016000 35.285000 32.303001 # C
104 1 33.070000 14.222000 11.259000 # C
105 2 37.925999 19.819000 39.469002 # C10
106 2 36.620998 17.641001 38.164001 # C10
107 2 39.379002 23.462000 40.953999 # C10
108 2 38.536999 20.940001 40.092999 # C10
109 1 12.016000 13.055000 17.049000 # C
110 1 33.070000 34.118000 38.094002 # C
111 3 37.925999 28.521000 9.884000 # C11
112 3 36.620998 30.698999 11.189000 # C11
113 3 39.379002 24.878000 8.399000 # C11
114 3 38.536999 27.400000 9.259000 # C11
115 1 37.716000 13.055000 32.303001 # C
116 1 16.660999 34.118000 11.259000 # C
117 3 11.806000 28.521000 39.469002 # C11
118 3 13.111000 30.698999 38.162998 # C11
119 3 10.353000 24.878000 40.953999 # C11
120 4 11.194000 27.400000 40.092999 # C12
121 1 35.980999 31.797001 11.826000 # C
122 1 14.918000 10.752000 32.881001 # C
123 4 20.514999 38.962002 37.736000 # C12
124 4 18.337000 37.657001 36.431000 # C12
125 4 24.158001 40.448002 39.189999 # C12
126 4 21.636000 39.587002 38.348000 # C12
127 1 35.980999 16.542999 37.527000 # C
128 1 14.918000 37.588001 16.472000 # C
129 4 20.514999 9.378000 11.617000 # C12
130 5 18.337000 10.683000 12.921000 # C13
131 5 24.158001 7.892000 10.163000 # C13
132 5 21.636000 8.753000 11.005000 # C13
133 1 13.751000 31.797001 37.527000 # C
134 1 34.813999 10.752000 16.472000 # C
135 5 29.216999 38.962002 11.617000 # C13
136 5 31.395000 37.657001 12.921000 # C13
137 5 25.573000 40.448002 10.163000 # C13
138 5 28.096001 39.587002 11.005000 # C13
139 1 13.751000 16.542999 11.826000 # C
140 1 34.813999 37.588001 32.881001 # C
141 6 29.216999 9.378000 37.736000 # C14
142 6 31.395000 10.683000 36.431000 # C14
143 6 25.573000 7.892000 39.189999 # C14
144 6 28.096001 8.753000 38.348000 # C14
145 1 12.016000 16.542999 13.561000 # C
146 1 33.070000 37.588001 34.624001 # C
147 6 37.925999 9.378000 29.027000 # C14
148 6 36.620998 10.683000 31.205000 # C14
149 6 39.379002 7.892000 25.384001 # C14
150 7 38.536999 8.753000 27.906000 # C15
151 1 37.716000 31.797001 13.561000 # C
152 1 16.660999 10.752000 34.624001 # C
153 7 11.806000 38.962002 29.027000 # C15
154 7 13.111000 37.657001 31.205000 # C15
155 7 10.353000 40.448002 25.384001 # C15
156 7 11.194000 39.587002 27.906000 # C15
157 1 37.716000 16.542999 35.791000 # C
158 1 16.660999 37.588001 14.729000 # C
159 7 11.806000 9.378000 20.326000 # C15
160 8 13.111000 10.683000 18.148001 # C16
161 8 10.353000 7.892000 23.969000 # C16
162 8 11.194000 8.753000 21.445999 # C16
163 1 12.016000 31.797001 35.791000 # C
164 1 33.070000 10.752000 14.729000 # C
165 8 37.925999 38.962002 20.326000 # C16
166 8 36.620998 37.657001 18.148001 # C16
167 8 39.379002 40.448002 23.969000 # C16
168 8 38.536999 39.587002 21.445999 # C16
169 1 13.751000 11.320000 17.049000 # C
170 1 34.813999 32.374001 38.094002 # C
171 9 29.216999 37.230000 9.884000 # C17
172 9 31.395000 35.924999 11.189000 # C17
173 9 25.573000 38.682999 8.399000 # C17
174 9 28.096001 37.841000 9.259000 # C17
175 1 13.751000 37.020000 32.303001 # C
176 1 34.813999 15.966000 11.259000 # C
177 9 29.216999 11.110000 39.469002 # C17
178 9 31.395000 12.415000 38.164001 # C17
179 9 25.573000 9.657000 40.953999 # C17
180 10 28.096001 10.499000 40.092999 # C18
181 1 35.980999 37.020000 17.049000 # C
182 1 14.918000 15.966000 38.094002 # C
183 10 20.514999 11.110000 9.884000 # C18
184 10 18.337000 12.415000 11.189000 # C18
185 10 24.158001 9.657000 8.399000 # C18
186 10 21.636000 10.499000 9.259000 # C18
187 1 35.980999 11.320000 32.303001 # C
188 1 14.918000 32.374001 11.259000 # C
189 10 20.514999 37.230000 39.469002 # C18
190 11 18.337000 35.924999 38.162998 # C19
191 11 24.158001 38.682999 40.953999 # C19
192 11 21.636000 37.841000 40.092999 # C19
193 1 17.239000 13.055000 11.826000 # C
194 1 38.283001 34.118000 32.881001 # C
195 11 10.073000 28.521000 37.736000 # C19
196 11 11.379000 30.698999 36.431000 # C19
197 11 8.588000 24.878000 39.189999 # C19
198 11 9.449000 27.400000 38.348000 # C19
199 1 32.493000 13.055000 37.527000 # C
200 1 11.448000 34.118000 16.472000 # C
201 12 39.658001 28.521000 11.617000 # C20
202 12 38.353001 30.698999 12.921000 # C20
203 12 41.144001 24.878000 10.163000 # C20
204 12 40.283001 27.400000 11.005000 # C20
205 1 17.239000 35.285000 37.527000 # C
206 1 38.283001 14.222000 16.472000 # C
207 12 10.073000 19.819000 11.617000 # C20
208 12 11.379000 17.641001 12.921000 # C20
209 12 8.588000 23.462000 10.163000 # C20
210 13 9.449000 20.940001 11.005000 # C21
211 1 32.493000 35.285000 11.826000 # C
212 1 11.448000 14.222000 32.881001 # C
213 13 39.658001 19.819000 37.736000 # C21
214 13 38.353001 17.641001 36.431000 # C21
215 13 41.144001 23.462000 39.189999 # C21
216 13 40.283001 20.940001 38.348000 # C21
217 1 17.239000 11.320000 35.791000 # C
218 1 38.284000 32.374001 14.729000 # C
219 13 10.073000 37.230000 20.326000 # C21
220 14 11.379000 35.924999 18.148001 # C22
221 14 8.588000 38.682999 23.969000 # C22
222 14 9.449000 37.841000 21.445999 # C22
223 1 32.493000 37.020000 35.791000 # C
224 1 11.448000 15.966000 14.729000 # C
225 14 39.658001 11.110000 20.326000 # C22
226 14 38.353001 12.415000 18.148001 # C22
227 14 41.144001 9.657000 23.969000 # C22
228 14 40.283001 10.499000 21.445999 # C22
229 1 17.239000 37.020000 13.561000 # C
230 1 38.284000 15.966000 34.624001 # C
231 15 10.073000 11.110000 29.027000 # C23
232 15 11.379000 12.415000 31.205000 # C23
233 15 8.588000 9.657000 25.384001 # C23
234 15 9.449000 10.499000 27.906000 # C23
235 1 32.493000 11.320000 13.561000 # C
236 1 11.448000 32.374001 34.624001 # C
237 15 39.658001 37.230000 29.027000 # C23
238 15 38.353001 35.924999 31.205000 # C23
239 15 41.144001 38.682999 25.384001 # C23
240 16 40.283001 37.841000 27.906000 # C24
241 1 12.015000 13.055000 32.303001 # C
242 1 33.070000 34.118000 11.259000 # C
243 16 37.924999 28.521000 39.469002 # C24
244 16 36.620998 30.698999 38.162998 # C24
245 16 39.379002 24.878000 40.953999 # C24
246 16 38.536999 27.400000 40.092999 # C24
247 1 37.716000 13.055000 17.049000 # C
248 1 16.660999 34.118000 38.094002 # C
249 16 11.806000 28.521000 9.884000 # C24
250 17 13.111000 30.698999 11.189000 # C25
251 17 10.353000 24.878000 8.399000 # C25
252 17 11.194000 27.400000 9.259000 # C25
253 1 37.716000 35.285000 32.303001 # C
254 1 16.660999 14.222000 11.259000 # C
255 17 11.806000 19.819000 39.469002 # C25
256 17 13.111000 17.641001 38.164001 # C25
257 17 10.353000 23.462000 40.953999 # C25
258 17 11.194000 20.940001 40.092999 # C25
259 1 12.016000 35.285000 17.049000 # C
260 1 33.070000 14.222000 38.094002 # C
261 18 37.925999 19.819000 9.884000 # C26
262 18 36.620998 17.641001 11.189000 # C26
263 18 39.379002 23.462000 8.399000 # C26
264 18 38.536999 20.940001 9.259000 # C26
265 1 13.751000 16.542999 37.527000 # C
266 1 34.813999 37.588001 16.472000 # C
267 18 29.216999 9.378000 11.617000 # C26
268 18 31.395000 10.683000 12.921000 # C26
269 18 25.573000 7.892000 10.163000 # C26
270 19 28.096001 8.753000 11.005000 # C27
271 1 13.751000 31.797001 11.826000 # C
272 1 34.813999 10.752000 32.881001 # C
273 19 29.216999 38.962002 37.736000 # C27
274 19 31.395000 37.657001 36.431000 # C27
275 19 25.573000 40.448002 39.189999 # C27
276 19 28.096001 39.587002 38.348000 # C27
277 1 35.980999 16.542999 11.826000 # C
278 1 14.918000 37.588001 32.881001 # C
279 19 20.514999 9.378000 37.736000 # C27
280 20 18.337000 10.683000 36.431000 # C28
281 20 24.158001 7.892000 39.189999 # C28
282 20 21.636000 8.753000 38.348000 # C28
283 1 35.980999 31.797001 37.527000 # C
284 1 14.918000 10.752000 16.472000 # C
285 20 20.514999 38.962002 11.617000 # C28
286 20 18.337000 37.657001 12.921000 # C28
287 20 24.158001 40.448002 10.163000 # C28
288 20 21.636000 39.587002 11.005000 # C28
289 20 36.529999 32.352001 36.340000 # C28
290 1 35.919998 33.481998 35.730999 # C
291 21 15.529000 11.355000 15.339000 # C29
292 1 14.973000 12.539000 14.784000 # C
293 21 13.202000 15.988000 36.340000 # C29
294 1 13.812000 14.858000 35.730999 # C
295 21 34.202999 36.985001 15.339000 # C29
296 1 34.758999 35.800999 14.784000 # C
297 21 13.202000 32.352001 13.013000 # C29
298 1 13.812000 33.481998 13.622000 # C
299 21 34.202999 11.355000 34.014000 # C29
300 1 34.758999 12.539000 34.569000 # C
301 23 36.529999 15.988000 13.013000 # C30
302 1 35.919998 14.858000 13.622000 # C
303 23 15.529000 36.985001 34.014000 # C30
304 1 14.973000 35.800999 34.569000 # C
305 23 36.529999 35.834000 32.858002 # C30
306 1 35.919998 35.223999 33.987999 # C
307 23 15.529000 14.833000 11.862000 # C30
308 1 14.973000 14.277000 13.045000 # C
309 23 36.529999 12.506000 16.495001 # C30
310 1 35.919998 13.116000 15.364000 # C
311 24 15.529000 33.507000 37.491001 # C31
312 1 14.973000 34.063000 36.307999 # C
313 24 13.202000 12.506000 32.858002 # C31
314 1 13.812000 13.116000 33.987999 # C
315 24 34.202999 33.507000 11.862000 # C31
316 1 34.758999 34.063000 13.045000 # C
317 24 13.202000 35.834000 16.495001 # C31
318 1 13.812000 35.223999 15.364000 # C
319 24 34.202999 14.833000 37.491001 # C31
320 1 34.758999 14.277000 36.307999 # C
321 25 33.048000 35.834000 36.340000 # C32
322 1 34.178001 35.223999 35.730999 # C
323 25 12.051000 14.833000 15.339000 # C32
324 1 13.235000 14.277000 14.784000 # C
325 25 16.684000 35.834000 13.013000 # C32
326 1 15.554000 35.223999 13.622000 # C
327 25 37.681000 14.833000 34.014000 # C32
328 1 36.497002 14.277000 34.569000 # C
329 25 33.048000 12.506000 13.013000 # C32
330 1 34.178001 13.116000 13.622000 # C
331 26 12.051000 33.507000 34.014000 # C33
332 1 13.235000 34.063000 34.569000 # C
333 26 16.684000 12.506000 36.340000 # C33
334 1 15.554000 13.116000 35.730999 # C
335 26 37.681000 33.507000 15.339000 # C33
336 1 36.497002 34.063000 14.784000 # C
337 26 33.048000 35.834000 13.012000 # C33
338 1 34.178001 35.223999 13.622000 # C
339 26 12.051000 14.833000 34.014000 # C33
340 1 13.235000 14.277000 34.569000 # C
341 27 16.684000 12.506000 13.013000 # C34
342 1 15.554000 13.116000 13.622000 # C
343 27 37.681000 33.507000 34.014000 # C34
344 1 36.497002 34.063000 34.569000 # C
345 27 33.048000 12.506000 36.340000 # C34
346 1 34.178001 13.116000 35.730999 # C
347 27 12.051000 33.507000 15.339000 # C34
348 1 13.235000 34.063000 14.784000 # C
349 27 16.684000 35.834000 36.340000 # C34
350 1 15.554000 35.223999 35.730999 # C
351 28 37.681000 14.833000 15.339000 # C35
352 1 36.497002 14.277000 14.784000 # C
353 28 36.529999 35.834000 16.495001 # C35
354 1 35.919998 35.223999 15.364000 # C
355 28 15.528000 14.833000 37.491001 # C35
356 1 14.973000 14.277000 36.307999 # C
357 28 13.202000 35.834000 32.858002 # C35
358 1 13.812000 35.223999 33.987999 # C
359 28 34.202999 14.833000 11.862000 # C35
360 1 34.757999 14.277000 13.045000 # C
361 29 13.202000 12.506000 16.495001 # C36
362 1 13.812000 13.116000 15.364000 # C
363 29 34.202999 33.507000 37.491001 # C36
364 1 34.757999 34.063000 36.307999 # C
365 29 36.529999 12.506000 32.858002 # C36
366 1 35.919998 13.116000 33.987999 # C
367 29 15.529000 33.507000 11.862000 # C36
368 1 14.973000 34.063000 13.045000 # C
369 29 36.529999 32.352001 13.012000 # C36
370 1 35.919998 33.481998 13.622000 # C
371 30 15.528000 11.355000 34.014000 # C37
372 1 14.973000 12.539000 34.569000 # C
373 30 36.529999 15.988000 36.340000 # C37
374 1 35.919998 14.858000 35.730999 # C
375 30 15.529000 36.985001 15.339000 # C37
376 1 14.973000 35.800999 14.784000 # C
377 30 13.202000 32.352001 36.340000 # C37
378 1 13.812000 33.481998 35.730999 # C
379 30 34.202999 11.355000 15.339000 # C37
380 1 34.757999 12.539000 14.784000 # C
381 31 13.202000 15.988000 13.013000 # C38
382 1 13.812000 14.858000 13.622000 # C
383 31 34.202999 36.985001 34.014000 # C38
384 1 34.757999 35.800999 34.569000 # C
385 31 11.920000 37.116001 18.698000 # C38
386 31 11.266000 37.770000 19.778000 # C38
387 31 10.045000 38.991001 22.028000 # C38
388 31 9.596000 39.439999 23.297001 # C38
389 31 37.812000 11.224000 18.698000 # C38
390 32 38.466000 10.570000 19.778000 # C39
391 32 39.687000 9.349000 22.028000 # C39
392 32 40.136002 8.900000 23.297001 # C39
393 32 37.812000 37.116001 30.655001 # C39
394 32 38.466000 37.770000 29.575001 # C39
395 32 39.687000 38.991001 27.325001 # C39
396 32 40.136002 39.439999 26.056000 # C39
397 32 11.920000 11.224000 30.655001 # C39
398 32 11.266000 10.570000 29.575001 # C39
399 32 10.045000 9.349000 27.325001 # C39
400 34 9.596000 8.900000 26.056000 # C40
401 34 18.886999 11.224000 37.623001 # C40
402 34 19.968000 10.570000 38.276001 # C40
403 34 22.216999 9.349000 39.497002 # C40
404 34 23.486000 8.900000 39.946999 # C40
405 34 18.886999 37.116001 11.730000 # C40
406 34 19.968000 37.770000 11.076000 # C40
407 34 22.216999 38.991001 9.855000 # C40
408 34 23.486000 39.439999 9.406000 # C40
409 34 30.844000 37.116001 37.623001 # C40
410 35 29.764000 37.770000 38.276001 # C41
411 35 27.514000 38.991001 39.497002 # C41
412 35 26.245001 39.439999 39.946999 # C41
413 35 30.844000 11.224000 11.730000 # C41
414 35 29.764000 10.570000 11.076000 # C41
415 35 27.514000 9.349000 9.855000 # C41
416 35 26.245001 8.900000 9.406000 # C41
417 35 37.812000 18.191999 11.730000 # C41
418 35 38.466000 19.271999 11.076000 # C41
419 35 39.687000 21.521999 9.855000 # C41
420 36 40.136002 22.791000 9.406000 # C42
421 36 11.920000 18.191000 37.623001 # C42
422 36 11.266000 19.271999 38.276001 # C42
423 36 10.045000 21.521999 39.497002 # C42
424 36 9.596000 22.791000 39.946999 # C42
425 36 37.812000 30.149000 37.623001 # C42
426 36 38.466000 29.068001 38.276001 # C42
427 36 39.687000 26.818001 39.497002 # C42
428 36 40.136002 25.549999 39.946999 # C42
429 36 11.920000 30.149000 11.730000 # C42
430 37 11.266000 29.068001 11.076000 # C43
431 37 10.045000 26.818001 9.855000 # C43
432 37 9.596000 25.549999 9.406000 # C43
433 37 37.812000 11.224000 30.655001 # C43
434 37 38.466000 10.570000 29.575001 # C43
435 37 39.687000 9.349000 27.325001 # C43
436 37 40.136002 8.900000 26.056000 # C43
437 37 11.920000 37.116001 30.655001 # C43
438 37 11.266000 37.770000 29.575001 # C43
439 37 10.045000 38.991001 27.325001 # C43
440 38 9.596000 39.439999 26.056000 # C44
441 38 37.812000 37.116001 18.698000 # C44
442 38 38.466000 37.770000 19.778000 # C44
443 38 39.687000 38.991001 22.028000 # C44
444 38 40.136002 39.439999 23.297001 # C44
445 38 11.920000 11.224000 18.698000 # C44
446 38 11.266000 10.570000 19.778000 # C44
447 38 10.045000 9.349000 22.028000 # C44
448 38 9.596000 8.900000 23.297001 # C44
449 38 11.920000 18.191000 11.730000 # C44
450 39 11.266000 19.271999 11.076000 # C45
451 39 10.045000 21.521999 9.855000 # C45
452 39 9.596000 22.791000 9.406000 # C45
453 39 37.812000 18.191000 37.623001 # C45
454 39 38.466000 19.271999 38.276001 # C45
455 39 39.687000 21.521999 39.497002 # C45
456 39 40.136002 22.791000 39.946999 # C45
457 39 37.812000 30.149000 11.730000 # C45
458 39 38.466000 29.068001 11.076000 # C45
459 39 39.687000 26.818001 9.855000 # C45
460 40 40.136002 25.549999 9.406000 # C46
461 40 11.920000 30.149000 37.623001 # C46
462 40 11.266000 29.068001 38.276001 # C46
463 40 10.045000 26.818001 39.497002 # C46
464 40 9.596000 25.549999 39.946999 # C46
465 40 18.886999 37.116001 37.623001 # C46
466 40 19.968000 37.770000 38.276001 # C46
467 40 22.216999 38.991001 39.497002 # C46
468 40 23.486000 39.439999 39.946999 # C46
469 40 18.886999 11.224000 11.730000 # C46
470 41 19.968000 10.570000 11.076000 # C47
471 41 22.216999 9.349000 9.855000 # C47
472 41 23.486000 8.900000 9.406000 # C47
473 41 30.844000 37.116001 11.730000 # C47
474 41 29.764000 37.770000 11.076000 # C47
475 41 27.514000 38.991001 9.855000 # C47
476 41 26.245001 39.439999 9.406000 # C47
477 41 30.844000 11.224000 37.623001 # C47
478 41 29.764000 10.570000 38.276001 # C47
479 41 27.514000 9.349000 39.497002 # C47
480 42 26.245001 8.900000 39.946999 # C48
481 42 13.639000 9.479000 18.683001 # C48
482 42 12.988000 8.830000 19.767000 # C48
483 42 11.779000 7.596000 22.035000 # C48
484 42 11.349000 7.117000 23.302999 # C48
485 42 36.092999 9.479000 18.683001 # C48
486 42 36.743999 8.830000 19.767000 # C48
487 42 37.952999 7.596000 22.035000 # C48
488 42 38.382999 7.117000 23.302999 # C48
489 42 36.092999 9.479000 30.670000 # C48
490 43 36.743999 8.830000 29.584999 # C49
491 43 37.952999 7.596000 27.318001 # C49
492 43 38.382999 7.117000 26.049999 # C49
493 43 13.638000 9.479000 30.670000 # C49
494 43 12.988000 8.830000 29.584999 # C49
495 43 11.779000 7.596000 27.318001 # C49
496 43 11.349000 7.117000 26.049999 # C49
497 43 18.872000 12.943000 9.986000 # C49
498 43 19.957001 12.292000 9.336000 # C49
499 43 22.224001 11.083000 8.102000 # C49
500 45 23.492001 10.653000 7.624000 # C50
501 45 18.872000 35.396999 9.986000 # C50
502 45 19.957001 36.048000 9.336000 # C50
503 45 22.224001 37.257000 8.102000 # C50
504 45 23.492001 37.687000 7.624000 # C50
505 45 30.858999 35.396999 9.986000 # C50
506 45 29.775000 36.048000 9.336000 # C50
507 45 27.507999 37.257000 8.102000 # C50
508 45 26.240000 37.687000 7.624000 # C50
509 45 30.858999 12.943000 9.986000 # C50
510 46 29.775000 12.292000 9.336000 # C51
511 46 27.507999 11.083000 8.102000 # C51
512 46 26.240000 10.653000 7.624000 # C51
513 46 10.175000 18.177000 13.449000 # C51
514 46 9.525000 19.261000 12.799000 # C51
515 46 8.292000 21.528000 11.589000 # C51
516 46 7.813000 22.796000 11.159000 # C51
517 46 10.175000 18.177000 35.903999 # C51
518 46 9.525000 19.261000 36.554001 # C51
519 46 8.292000 21.528000 37.764000 # C51
520 47 7.813000 22.796000 38.194000 # C52
521 47 10.175000 30.163000 35.903999 # C52
522 47 9.525000 29.079000 36.554001 # C52
523 47 8.292000 26.812000 37.764000 # C52
524 47 7.813000 25.544001 38.194000 # C52
525 47 10.175000 30.163000 13.449000 # C52
526 47 9.525000 29.079000 12.799000 # C52
527 47 8.292000 26.812000 11.589000 # C52
528 47 7.813000 25.544001 11.159000 # C52
529 47 10.175000 12.943000 30.670000 # C52
530 48 9.525000 12.292000 29.584999 # C53
531 48 8.292000 11.083000 27.318001 # C53
532 48 7.813000 10.653000 26.049999 # C53
533 48 10.175000 35.396999 30.670000 # C53
534 48 9.525000 36.048000 29.584999 # C53
535 48 8.292000 37.257000 27.318001 # C53
536 48 7.813000 37.687000 26.049999 # C53
537 48 10.175000 35.396999 18.683001 # C53
538 48 9.525000 36.048000 19.767000 # C53
539 48 8.292000 37.257000 22.035000 # C53
540 49 7.813000 37.687000 23.302999 # C54
541 49 10.175000 12.943000 18.683001 # C54
542 49 9.525000 12.292000 19.767000 # C54
543 49 8.292000 11.083000 22.035000 # C54
544 49 7.813000 10.653000 23.302999 # C54
545 49 13.639000 18.177000 9.986000 # C54
546 49 12.988000 19.261000 9.336000 # C54
547 49 11.779000 21.528000 8.102000 # C54
548 49 11.349000 22.796000 7.624000 # C54
549 49 36.092999 18.177000 9.986000 # C54
550 50 36.743999 19.261000 9.336000 # C55
551 50 37.952999 21.528000 8.102000 # C55
552 50 38.382999 22.796000 7.624000 # C55
553 50 36.092999 30.163000 9.986000 # C55
554 50 36.743999 29.079000 9.336000 # C55
555 50 37.952999 26.812000 8.102000 # C55
556 50 13.639000 30.163000 9.986000 # C55
557 50 12.988000 29.079000 9.336000 # C55
558 50 11.779000 26.812000 8.102000 # C55
559 50 11.349000 25.544001 7.624000 # C55
560 51 18.872000 9.479000 35.903999 # C56
561 51 19.957001 8.830000 36.554001 # C56
562 51 22.224001 7.596000 37.764000 # C56
563 51 23.492001 7.117000 38.194000 # C56
564 51 18.872000 9.479000 13.449000 # C56
565 51 19.957001 8.830000 12.799000 # C56
566 51 22.224001 7.596000 11.589000 # C56
567 51 23.492001 7.117000 11.159000 # C56
568 51 30.858999 9.479000 13.449000 # C56
569 51 29.775000 8.830000 12.799000 # C56
570 52 27.507999 7.596000 11.589000 # C57
571 52 26.240000 7.117000 11.159000 # C57
572 52 30.858999 9.479000 35.903999 # C57
573 52 29.775000 8.830000 36.554001 # C57
574 52 27.507999 7.596000 37.764000 # C57
575 52 26.240000 7.117000 38.194000 # C57
576 52 39.556999 18.177000 13.449000 # C57
577 52 40.206001 19.261000 12.799000 # C57
578 52 41.439999 21.528000 11.589000 # C57
579 52 41.918999 22.796000 11.159000 # C57
580 53 39.556999 18.177000 35.903999 # C58
581 53 40.206001 19.261000 36.554001 # C58
582 53 41.439999 21.528000 37.764000 # C58
583 53 41.918999 22.796000 38.194000 # C58
584 53 39.556999 30.163000 35.903999 # C58
585 53 40.206001 29.079000 36.554001 # C58
586 53 41.439999 26.812000 37.764000 # C58
587 53 41.918999 25.544001 38.194000 # C58
588 53 39.556999 30.163000 13.449000 # C58
589 53 40.206001 29.079000 12.799000 # C58
590 54 41.439999 26.812000 11.589000 # C59
591 54 41.918999 25.544001 11.159000 # C59
592 54 39.556999 12.943000 30.670000 # C59
593 54 40.206001 12.292000 29.584999 # C59
594 54 41.439999 11.083000 27.318001 # C59
595 54 41.918999 10.653000 26.049999 # C59
596 54 39.556999 35.396999 30.670000 # C59
597 54 40.206001 36.048000 29.584999 # C59
598 54 41.439999 37.257000 27.318001 # C59
599 54 41.918999 37.687000 26.049999 # C59
600 56 39.556999 35.396999 18.683001 # C60
601 56 40.206001 36.048000 19.767000 # C60
602 56 41.439999 37.257000 22.035000 # C60
603 56 41.918999 37.687000 23.302999 # C60
604 56 39.556999 12.943000 18.683001 # C60
605 56 40.206001 12.292000 19.767000 # C60
606 56 41.439999 11.083000 22.035000 # C60
607 56 41.918999 10.653000 23.302999 # C60
608 1 32.542000 38.794998 34.098000 # C
609 1 34.286999 38.794998 32.352001 # C
610 57 13.639000 38.861000 18.683001 # C61
611 57 12.988000 39.509998 19.767000 # C61
612 57 11.779000 40.743999 22.035000 # C61
613 57 11.349000 41.223000 23.302999 # C61
614 57 36.092999 38.861000 18.683001 # C61
615 57 36.743999 39.509998 19.767000 # C61
616 57 37.952999 40.743999 22.035000 # C61
617 57 38.382999 41.223000 23.302999 # C61
618 57 36.092999 38.861000 30.670000 # C61
619 57 36.743999 39.509998 29.584999 # C61
620 58 37.952999 40.743999 27.318001 # C62
621 58 38.382999 41.223000 26.049999 # C62
622 58 13.639000 38.861000 30.670000 # C62
623 58 12.988000 39.509998 29.584999 # C62
624 58 11.779000 40.743999 27.318001 # C62
625 58 11.349000 41.223000 26.049999 # C62
626 58 18.872000 38.861000 35.903999 # C62
627 58 19.957001 39.509998 36.554001 # C62
628 58 22.224001 40.743999 37.764000 # C62
629 58 23.492001 41.223000 38.194000 # C62
630 59 18.872000 38.861000 13.449000 # C63
631 59 19.957001 39.509998 12.799000 # C63
632 59 22.224001 40.743999 11.589000 # C63
633 59 23.492001 41.223000 11.159000 # C63
634 59 30.858999 38.861000 13.449000 # C63
635 59 29.775000 39.509998 12.799000 # C63
636 59 27.507999 40.743999 11.589000 # C63
637 59 26.240000 41.223000 11.159000 # C63
638 59 30.858999 38.861000 35.903999 # C63
639 59 29.775000 39.509998 36.554001 # C63
640 60 27.507999 40.743999 37.764000 # C64
641 60 26.240000 41.223000 38.194000 # C64