LAMMPS data file. CGCMM style. atom_style atomic generated by VMD/TopoTools v1.6 on Tue May 03 11:33:58 EDT 2016
 216 atoms
 0 bonds
 0 angles
 0 dihedrals
 0 impropers
 1 atom types
 0 bond types
 0 angle types
 0 dihedral types
 0 improper types
 -0.604000 15.549999  xlo xhi
 -0.614500 15.539499  ylo yhi
 -0.607000 15.546999  zlo zhi

# Pair Coeffs
#
# 1  C

 Masses

 1 12.010700 # C

 Atoms

1 1 4.436000 2.399000 3.415000 # C
2 1 6.683000 1.248000 2.981000 # C
3 1 5.320000 1.263000 3.364000 # C
4 1 11.752000 13.768000 3.415000 # C
5 1 9.505000 14.919000 2.981000 # C
6 1 10.868000 14.904000 3.364000 # C
7 1 11.752000 2.399000 12.767000 # C
8 1 9.505000 1.248000 13.201000 # C
9 1 10.868000 1.263000 12.818000 # C
10 1 4.436000 13.768000 12.767000 # C
11 1 6.683000 14.919000 13.201000 # C
12 1 5.320000 14.904000 12.818000 # C
13 1 3.418000 4.426000 2.406000 # C
14 1 2.984000 6.672000 1.256000 # C
15 1 3.367000 5.309000 1.271000 # C
16 1 3.418000 11.741000 13.776000 # C
17 1 2.984000 9.495000 14.926000 # C
18 1 3.367000 10.857000 14.911000 # C
19 1 12.770000 11.741000 2.406000 # C
20 1 13.204000 9.495000 1.256000 # C
21 1 12.821000 10.857000 1.271000 # C
22 1 12.770000 4.426000 13.776000 # C
23 1 13.204000 6.672000 14.926000 # C
24 1 12.821000 5.309000 14.911000 # C
25 1 2.409000 3.408000 4.433000 # C
26 1 1.258000 2.974000 6.680000 # C
27 1 1.274000 3.357000 5.317000 # C
28 1 13.778000 3.408000 11.749000 # C
29 1 14.929000 2.974000 9.502000 # C
30 1 14.914000 3.357000 10.865000 # C
31 1 2.409000 12.759000 11.749000 # C
32 1 1.258000 13.193000 9.502000 # C
33 1 1.274000 12.810000 10.865000 # C
34 1 13.778000 12.759000 4.433000 # C
35 1 14.929000 13.193000 6.680000 # C
36 1 14.914000 12.810000 5.317000 # C
37 1 2.409000 4.426000 12.767000 # C
38 1 1.258000 6.672000 13.201000 # C
39 1 1.274000 5.309000 12.818000 # C
40 1 13.778000 11.741000 12.767000 # C
41 1 14.929000 9.495000 13.201000 # C
42 1 14.914000 10.857000 12.818000 # C
43 1 2.409000 11.741000 3.415000 # C
44 1 1.258000 9.495000 2.981000 # C
45 1 1.274000 10.857000 3.364000 # C
46 1 13.778000 4.426000 3.415000 # C
47 1 14.929000 6.672000 2.981000 # C
48 1 14.914000 5.309000 3.364000 # C
49 1 4.436000 3.408000 13.776000 # C
50 1 6.683000 2.974000 14.926000 # C
51 1 5.320000 3.357000 14.911000 # C
52 1 11.752000 3.408000 2.406000 # C
53 1 9.505000 2.974000 1.256000 # C
54 1 10.868000 3.357000 1.271000 # C
55 1 11.752000 12.759000 13.776000 # C
56 1 9.505000 13.193000 14.926000 # C
57 1 10.868000 12.810000 14.911000 # C
58 1 4.436000 12.759000 2.406000 # C
59 1 6.683000 13.193000 1.256000 # C
60 1 5.320000 12.810000 1.271000 # C
61 1 3.418000 2.399000 11.749000 # C
62 1 2.984000 1.248000 9.502000 # C
63 1 3.367000 1.263000 10.865000 # C
64 1 3.418000 13.768000 4.433000 # C
65 1 2.984000 14.919000 6.680000 # C
66 1 3.367000 14.904000 5.317000 # C
67 1 12.770000 2.399000 4.433000 # C
68 1 13.204000 1.248000 6.680000 # C
69 1 12.821000 1.263000 5.317000 # C
70 1 12.770000 13.768000 11.749000 # C
71 1 13.204000 14.919000 9.502000 # C
72 1 12.821000 14.904000 10.865000 # C
73 1 11.752000 13.768000 12.767000 # C
74 1 9.505000 14.919000 13.201000 # C
75 1 10.868000 14.904000 12.818000 # C
76 1 4.436000 2.399000 12.767000 # C
77 1 6.683000 1.248000 13.201000 # C
78 1 5.320000 1.263000 12.818000 # C
79 1 4.436000 13.768000 3.415000 # C
80 1 6.683000 14.919000 2.981000 # C
81 1 5.320000 14.904000 3.364000 # C
82 1 11.752000 2.399000 3.415000 # C
83 1 9.505000 1.248000 2.981000 # C
84 1 10.868000 1.263000 3.364000 # C
85 1 12.770000 11.741000 13.776000 # C
86 1 13.204000 9.495000 14.926000 # C
87 1 12.821000 10.857000 14.911000 # C
88 1 12.770000 4.426000 2.406000 # C
89 1 13.204000 6.672000 1.256000 # C
90 1 12.821000 5.309000 1.271000 # C
91 1 3.418000 4.426000 13.776000 # C
92 1 2.984000 6.672000 14.926000 # C
93 1 3.367000 5.309000 14.911000 # C
94 1 3.418000 11.741000 2.406000 # C
95 1 2.984000 9.495000 1.256000 # C
96 1 3.367000 10.857000 1.271000 # C
97 1 13.778000 12.759000 11.749000 # C
98 1 14.929000 13.193000 9.502000 # C
99 1 14.914000 12.810000 10.865000 # C
100 1 2.409000 12.759000 4.433000 # C
101 1 1.258000 13.193000 6.680000 # C
102 1 1.274000 12.810000 5.317000 # C
103 1 13.778000 3.408000 4.433000 # C
104 1 14.929000 2.974000 6.680000 # C
105 1 14.914000 3.357000 5.317000 # C
106 1 2.409000 3.408000 11.749000 # C
107 1 1.258000 2.974000 9.502000 # C
108 1 1.274000 3.357000 10.865000 # C
109 1 13.778000 11.741000 3.415000 # C
110 1 14.929000 9.495000 2.981000 # C
111 1 14.914000 10.857000 3.364000 # C
112 1 2.409000 4.426000 3.415000 # C
113 1 1.258000 6.672000 2.981000 # C
114 1 1.274000 5.309000 3.364000 # C
115 1 13.778000 4.426000 12.767000 # C
116 1 14.929000 6.672000 13.201000 # C
117 1 14.914000 5.309000 12.818000 # C
118 1 2.409000 11.741000 12.767000 # C
119 1 1.258000 9.495000 13.201000 # C
120 1 1.274000 10.857000 12.818000 # C
121 1 11.752000 12.759000 2.406000 # C
122 1 9.505000 13.193000 1.256000 # C
123 1 10.868000 12.810000 1.271000 # C
124 1 4.436000 12.759000 13.776000 # C
125 1 6.683000 13.193000 14.926000 # C
126 1 5.320000 12.810000 14.911000 # C
127 1 4.436000 3.408000 2.406000 # C
128 1 6.683000 2.974000 1.256000 # C
129 1 5.320000 3.357000 1.271000 # C
130 1 11.752000 3.408000 13.776000 # C
131 1 9.505000 2.974000 14.926000 # C
132 1 10.868000 3.357000 14.911000 # C
133 1 12.770000 13.768000 4.433000 # C
134 1 13.204000 14.919000 6.680000 # C
135 1 12.821000 14.904000 5.317000 # C
136 1 12.770000 2.399000 11.749000 # C
137 1 13.204000 1.248000 9.502000 # C
138 1 12.821000 1.263000 10.865000 # C
139 1 3.418000 13.768000 11.749000 # C
140 1 2.984000 14.919000 9.502000 # C
141 1 3.367000 14.904000 10.865000 # C
142 1 3.418000 2.399000 4.433000 # C
143 1 2.984000 1.248000 6.680000 # C
144 1 3.367000 1.263000 5.317000 # C
145 1 7.377000 2.288000 2.296000 # C
146 1 8.811000 13.879000 2.296000 # C
147 1 8.811000 2.288000 13.886000 # C
148 1 7.377000 13.879000 13.886000 # C
149 1 2.298000 7.366000 2.296000 # C
150 1 2.298000 8.801000 13.886000 # C
151 1 13.889000 8.801000 2.296000 # C
152 1 13.889000 7.366000 13.886000 # C
153 1 2.298000 2.288000 7.374000 # C
154 1 13.889000 2.288000 8.808000 # C
155 1 2.298000 13.879000 8.808000 # C
156 1 13.889000 13.879000 7.374000 # C
157 1 2.298000 7.366000 13.886000 # C
158 1 13.889000 8.801000 13.886000 # C
159 1 2.298000 8.801000 2.296000 # C
160 1 13.889000 7.366000 2.296000 # C
161 1 7.377000 2.288000 13.886000 # C
162 1 8.811000 2.288000 2.296000 # C
163 1 8.811000 13.879000 13.886000 # C
164 1 7.377000 13.879000 2.296000 # C
165 1 2.298000 2.288000 8.808000 # C
166 1 2.298000 13.879000 7.374000 # C
167 1 13.889000 2.288000 7.374000 # C
168 1 13.889000 13.879000 8.808000 # C
169 1 7.386000 0.006000 3.104000 # C
170 1 4.785000 0.006000 3.788000 # C
171 1 8.802000 0.006000 3.104000 # C
172 1 11.403000 0.006000 3.788000 # C
173 1 8.802000 0.006000 13.078000 # C
174 1 11.403000 0.006000 12.394000 # C
175 1 7.386000 0.006000 13.078000 # C
176 1 4.785000 0.006000 12.394000 # C
177 1 3.107000 7.375000 0.014000 # C
178 1 3.791000 4.774000 0.014000 # C
179 1 3.107000 8.792000 0.014000 # C
180 1 3.791000 11.393000 0.014000 # C
181 1 13.080000 8.792000 0.014000 # C
182 1 12.397000 11.393000 0.014000 # C
183 1 13.080000 7.375000 0.014000 # C
184 1 12.397000 4.774000 0.014000 # C
185 1 0.017000 3.097000 7.383000 # C
186 1 0.017000 3.781000 4.782000 # C
187 1 0.017000 3.097000 8.799000 # C
188 1 0.017000 3.781000 11.400000 # C
189 1 0.017000 13.070000 8.799000 # C
190 1 0.017000 12.386000 11.400000 # C
191 1 0.017000 13.070000 7.383000 # C
192 1 0.017000 12.386000 4.782000 # C
193 1 0.017000 7.375000 13.078000 # C
194 1 0.017000 4.774000 12.394000 # C
195 1 0.017000 8.792000 13.078000 # C
196 1 0.017000 11.393000 12.394000 # C
197 1 0.017000 8.792000 3.104000 # C
198 1 0.017000 11.393000 3.788000 # C
199 1 0.017000 7.375000 3.104000 # C
200 1 0.017000 4.774000 3.788000 # C
201 1 7.386000 3.097000 0.014000 # C
202 1 4.785000 3.781000 0.014000 # C
203 1 8.802000 3.097000 0.014000 # C
204 1 11.403000 3.781000 0.014000 # C
205 1 8.802000 13.070000 0.014000 # C
206 1 11.403000 12.386000 0.014000 # C
207 1 7.386000 13.070000 0.014000 # C
208 1 4.785000 12.386000 0.014000 # C
209 1 3.107000 0.006000 8.799000 # C
210 1 3.791000 0.006000 11.400000 # C
211 1 3.107000 0.006000 7.383000 # C
212 1 3.791000 0.006000 4.782000 # C
213 1 13.080000 0.006000 7.383000 # C
214 1 12.397000 0.006000 4.782000 # C
215 1 13.080000 0.006000 8.799000 # C
216 1 12.397000 0.006000 11.400000 # C

