LAMMPS data file. CGCMM style. atom_style atomic generated by VMD/TopoTools v1.6 on Tue May 03 11:35:25 EDT 2016
 3072 atoms
 0 bonds
 0 angles
 0 dihedrals
 0 impropers
 19 atom types
 0 bond types
 0 angle types
 0 dihedral types
 0 improper types
 -0.000000 56.924000  xlo xhi
 -0.000000 56.924000  ylo yhi
 -0.000000 56.924000  zlo zhi

# Pair Coeffs
#
# 1  C1
# 2  C11
# 3  C12
# 4  C16
# 5  C17
# 6  C22
# 7  C23
# 8  C24
# 9  C25
# 10  C27
# 11  C43
# 12  C44
# 13  C45
# 14  C49
# 15  C51
# 16  C7
# 17  C9
# 18  C97
# 19  C99

 Masses

 1 12.010700 # C1
 2 12.010700 # C11
 3 12.010700 # C12
 4 12.010700 # C16
 5 12.010700 # C17
 6 12.010700 # C22
 7 12.010700 # C23
 8 12.010700 # C24
 9 12.010700 # C25
 10 12.010700 # C27
 11 12.010700 # C43
 12 12.010700 # C44
 13 12.010700 # C45
 14 12.010700 # C49
 15 12.010700 # C51
 16 12.010700 # C7
 17 12.010700 # C9
 18 12.010700 # C97
 19 12.010700 # C99

 Atoms

1 16 4.903000 11.871000 25.754999 # C7
2 9 11.753000 8.267000 22.169001 # C25
3 11 2.728000 13.206000 27.093000 # C43
4 12 6.287000 9.766000 27.054001 # C44
5 13 6.019000 12.985000 23.403999 # C45
6 14 9.530000 13.008000 19.959999 # C49
7 18 8.210000 9.955000 23.846001 # C97
8 2 5.982000 11.216000 25.101999 # C11
9 2 4.316000 13.033000 25.191000 # C11
10 2 4.521000 11.487000 27.066000 # C11
11 3 13.039000 11.300000 18.254000 # C12
12 4 12.985000 7.764000 21.670000 # C16
13 5 11.163000 9.420000 21.584000 # C17
14 5 11.141000 7.651000 23.294001 # C17
15 5 9.436000 7.691000 25.063000 # C17
16 6 1.605000 13.858000 27.740999 # C22
17 6 3.522000 12.229000 27.756001 # C22
18 6 3.208000 13.654000 25.832001 # C22
19 6 5.315000 10.531000 27.753000 # C22
20 6 7.083000 8.821000 27.752001 # C22
21 6 6.613000 10.098000 25.711000 # C22
22 6 4.912000 13.612000 24.039000 # C22
23 7 6.531000 11.761000 23.910999 # C23
24 7 6.647000 13.605000 22.291000 # C23
25 8 8.395000 13.613000 20.563000 # C24
26 8 10.054000 11.795000 20.481001 # C24
27 8 10.149000 13.627000 18.841999 # C24
28 8 11.903000 13.641000 17.118999 # C24
29 16 33.365002 40.333000 54.216999 # C7
30 9 40.215000 36.730000 50.631001 # C25
31 11 31.190001 41.667999 55.555000 # C43
32 12 34.749001 38.228001 55.515999 # C44
33 13 34.480999 41.446999 51.867001 # C45
34 14 37.992001 41.471001 48.422001 # C49
35 18 36.673000 38.417999 52.307999 # C97
36 2 34.444000 39.678001 53.564999 # C11
37 2 32.778000 41.494999 53.653000 # C11
38 2 32.983002 39.949001 55.528999 # C11
39 3 41.500999 39.763000 46.716999 # C12
40 4 41.446999 36.226002 50.132000 # C16
41 5 39.625000 37.882000 50.046001 # C17
42 5 39.603001 36.113998 51.756001 # C17
43 5 37.897999 36.153000 53.525002 # C17
44 6 30.066999 42.320000 56.202999 # C22
45 6 31.983999 40.692001 56.217999 # C22
46 6 31.670000 42.116001 54.293999 # C22
47 6 33.777000 38.993000 56.215000 # C22
48 6 35.546001 37.283001 56.214001 # C22
49 6 35.075001 38.560001 54.174000 # C22
50 6 33.375000 42.074001 52.500999 # C22
51 7 34.993000 40.223000 52.373001 # C23
52 7 35.109001 42.068001 50.754002 # C23
53 8 36.856998 42.075001 49.025002 # C24
54 8 38.515999 40.257999 48.943001 # C24
55 8 38.611000 42.089001 47.304001 # C24
56 8 40.365002 42.104000 45.581001 # C24
57 16 52.021999 45.054001 25.754999 # C7
58 9 45.171001 48.657001 22.169001 # C25
59 11 54.195999 43.717999 27.093000 # C43
60 12 50.637001 47.158001 27.054001 # C44
61 13 50.905998 43.938999 23.403999 # C45
62 14 47.395000 43.916000 19.959999 # C49
63 18 48.714001 46.969002 23.846001 # C97
64 2 50.942001 45.709000 25.101999 # C11
65 2 52.608002 43.890999 25.191000 # C11
66 2 52.403999 45.437000 27.066000 # C11
67 3 43.884998 45.624001 18.254000 # C12
68 4 43.938999 49.160000 21.670000 # C16
69 5 45.762001 47.504002 21.584000 # C17
70 5 45.784000 49.272999 23.294001 # C17
71 5 47.487999 49.233002 25.063000 # C17
72 6 55.319000 43.066002 27.740999 # C22
73 6 53.403000 44.695000 27.756001 # C22
74 6 53.716000 43.270000 25.832001 # C22
75 6 51.609001 46.394001 27.753000 # C22
76 6 49.841000 48.104000 27.752001 # C22
77 6 50.311001 46.827000 25.711000 # C22
78 6 52.012001 43.312000 24.039000 # C22
79 7 50.393002 45.164001 23.910999 # C23
80 7 50.277000 43.319000 22.291000 # C23
81 8 48.529999 43.311001 20.563000 # C24
82 8 46.869999 45.129002 20.481001 # C24
83 8 46.775002 43.297001 18.841999 # C24
84 8 45.021999 43.283001 17.118999 # C24
85 16 23.559000 16.591000 54.216999 # C7
86 9 16.709000 20.195000 50.631001 # C25
87 11 25.733999 15.256000 55.555000 # C43
88 12 22.174999 18.695999 55.515999 # C44
89 13 22.444000 15.477000 51.867001 # C45
90 14 18.933001 15.454000 48.422001 # C49
91 18 20.252001 18.507000 52.307999 # C97
92 2 22.480000 17.247000 53.564999 # C11
93 2 24.146000 15.429000 53.653000 # C11
94 2 23.941999 16.975000 55.528999 # C11
95 3 15.423000 17.162001 46.716999 # C12
96 4 15.477000 20.698000 50.132000 # C16
97 5 17.299000 19.042000 50.046001 # C17
98 5 17.322001 20.811001 51.756001 # C17
99 5 19.025999 20.771000 53.525002 # C17
100 6 26.857000 14.604000 56.202999 # C22
101 6 24.941000 16.233000 56.217999 # C22
102 6 25.254000 14.808000 54.293999 # C22
103 6 23.146999 17.931999 56.215000 # C22
104 6 21.379000 19.641001 56.214001 # C22
105 6 21.849001 18.365000 54.174000 # C22
106 6 23.549999 14.850000 52.500999 # C22
107 7 21.931000 16.701000 52.373001 # C23
108 7 21.815001 14.857000 50.754002 # C23
109 8 20.066999 14.849000 49.025002 # C24
110 8 18.408001 16.667000 48.943001 # C24
111 8 18.313000 14.835000 47.304001 # C24
112 8 16.559000 14.821000 45.581001 # C24
113 16 52.021999 11.871000 31.170000 # C7
114 9 45.171001 8.267000 34.755001 # C25
115 11 54.195999 13.206000 29.830999 # C43
116 12 50.637001 9.766000 29.871000 # C44
117 13 50.905998 12.985000 33.520000 # C45
118 14 47.395000 13.008000 36.965000 # C49
119 18 48.714001 9.955000 33.077999 # C97
120 2 50.942001 11.216000 31.822001 # C11
121 2 52.608002 13.033000 31.733000 # C11
122 2 52.403999 11.487000 29.858000 # C11
123 3 43.884998 11.300000 38.669998 # C12
124 4 43.938999 7.764000 35.254002 # C16
125 5 45.762001 9.420000 35.340000 # C17
126 5 45.784000 7.651000 33.631001 # C17
127 5 47.487999 7.691000 31.862000 # C17
128 6 55.319000 13.858000 29.183001 # C22
129 6 53.403000 12.229000 29.167999 # C22
130 6 53.716000 13.654000 31.093000 # C22
131 6 51.609001 10.531000 29.172001 # C22
132 6 49.841000 8.821000 29.172001 # C22
133 6 50.311001 10.098000 31.212999 # C22
134 6 52.012001 13.612000 32.884998 # C22
135 7 50.393002 11.761000 33.013000 # C23
136 7 50.277000 13.605000 34.632999 # C23
137 8 48.529999 13.613000 36.361000 # C24
138 8 46.869999 11.795000 36.443001 # C24
139 8 46.775002 13.627000 38.083000 # C24
140 8 45.021999 13.641000 39.806000 # C24
141 16 23.559000 40.333000 2.707000 # C7
142 9 16.709000 36.730000 6.293000 # C25
143 11 25.733999 41.667999 1.369000 # C43
144 12 22.174999 38.228001 1.408000 # C44
145 13 22.444000 41.446999 5.058000 # C45
146 14 18.933001 41.471001 8.502000 # C49
147 18 20.252001 38.417999 4.616000 # C97
148 2 22.480000 39.678001 3.360000 # C11
149 2 24.146000 41.494999 3.271000 # C11
150 2 23.941999 39.949001 1.396000 # C11
151 3 15.423000 39.763000 10.208000 # C12
152 4 15.477000 36.226002 6.792000 # C16
153 5 17.299000 37.882000 6.878000 # C17
154 5 17.322001 36.113998 5.168000 # C17
155 5 19.025999 36.153000 3.399000 # C17
156 6 26.857000 42.320000 0.721000 # C22
157 6 24.941000 40.692001 0.706000 # C22
158 6 25.254000 42.116001 2.631000 # C22
159 6 23.146999 38.993000 0.710000 # C22
160 6 21.379000 37.283001 0.710000 # C22
161 6 21.849001 38.560001 2.751000 # C22
162 6 23.549999 42.074001 4.423000 # C22
163 7 21.931000 40.223000 4.551000 # C23
164 7 21.815001 42.068001 6.171000 # C23
165 8 20.066999 42.075001 7.899000 # C24
166 8 18.408001 40.257999 7.981000 # C24
167 8 18.313000 42.089001 9.621000 # C24
168 8 16.559000 42.104000 11.344000 # C24
169 16 4.903000 45.054001 31.170000 # C7
170 9 11.753000 48.657001 34.755001 # C25
171 11 2.728000 43.717999 29.830999 # C43
172 12 6.287000 47.158001 29.871000 # C44
173 13 6.019000 43.938999 33.520000 # C45
174 14 9.530000 43.916000 36.965000 # C49
175 18 8.210000 46.969002 33.077999 # C97
176 2 5.982000 45.709000 31.822001 # C11
177 2 4.316000 43.890999 31.733000 # C11
178 2 4.521000 45.437000 29.858000 # C11
179 3 13.039000 45.624001 38.669998 # C12
180 4 12.985000 49.160000 35.254002 # C16
181 5 11.163000 47.504002 35.340000 # C17
182 5 11.141000 49.272999 33.631001 # C17
183 5 9.436000 49.233002 31.862000 # C17
184 6 1.605000 43.066002 29.183001 # C22
185 6 3.522000 44.695000 29.167999 # C22
186 6 3.208000 43.270000 31.093000 # C22
187 6 5.315000 46.394001 29.172001 # C22
188 6 7.083000 48.104000 29.172001 # C22
189 6 6.613000 46.827000 31.212999 # C22
190 6 4.912000 43.312000 32.884998 # C22
191 7 6.531000 45.164001 33.013000 # C23
192 7 6.647000 43.319000 34.632999 # C23
193 8 8.395000 43.311001 36.361000 # C24
194 8 10.054000 45.129002 36.443001 # C24
195 8 10.149000 43.297001 38.083000 # C24
196 8 11.903000 43.283001 39.806000 # C24
197 16 33.365002 16.591000 2.707000 # C7
198 9 40.215000 20.195000 6.293000 # C25
199 11 31.190001 15.256000 1.369000 # C43
200 12 34.749001 18.695999 1.408000 # C44
201 13 34.480999 15.477000 5.058000 # C45
202 14 37.992001 15.454000 8.502000 # C49
203 18 36.673000 18.507000 4.616000 # C97
204 2 34.444000 17.247000 3.360000 # C11
205 2 32.778000 15.429000 3.271000 # C11
206 2 32.983002 16.975000 1.396000 # C11
207 3 41.500999 17.162001 10.208000 # C12
208 4 41.446999 20.698000 6.792000 # C16
209 5 39.625000 19.042000 6.878000 # C17
210 5 39.603001 20.811001 5.168000 # C17
211 5 37.897999 20.771000 3.399000 # C17
212 6 30.066999 14.604000 0.721000 # C22
213 6 31.983999 16.233000 0.706000 # C22
214 6 31.670000 14.808000 2.631000 # C22
215 6 33.777000 17.931999 0.710000 # C22
216 6 35.546001 19.641001 0.710000 # C22
217 6 35.075001 18.365000 2.751000 # C22
218 6 33.375000 14.850000 4.423000 # C22
219 7 34.993000 16.701000 4.551000 # C23
220 7 35.109001 14.857000 6.171000 # C23
221 8 36.856998 14.849000 7.899000 # C24
222 8 38.515999 16.667000 7.981000 # C24
223 8 38.611000 14.835000 9.621000 # C24
224 8 40.365002 14.821000 11.344000 # C24
225 16 25.754999 4.903000 11.871000 # C7
226 9 22.169001 11.753000 8.267000 # C25
227 11 27.093000 2.728000 13.206000 # C43
228 12 27.054001 6.287000 9.766000 # C44
229 13 23.403999 6.019000 12.985000 # C45
230 14 19.959999 9.530000 13.008000 # C49
231 18 23.846001 8.210000 9.955000 # C97
232 2 25.101999 5.982000 11.216000 # C11
233 2 25.191000 4.316000 13.033000 # C11
234 2 27.066000 4.521000 11.487000 # C11
235 3 18.254000 13.039000 11.300000 # C12
236 4 21.670000 12.985000 7.764000 # C16
237 5 21.584000 11.163000 9.420000 # C17
238 5 23.294001 11.141000 7.651000 # C17
239 5 25.063000 9.436000 7.691000 # C17
240 6 27.740999 1.605000 13.858000 # C22
241 6 27.756001 3.522000 12.229000 # C22
242 6 25.832001 3.208000 13.654000 # C22
243 6 27.753000 5.315000 10.531000 # C22
244 6 27.752001 7.083000 8.821000 # C22
245 6 25.711000 6.613000 10.098000 # C22
246 6 24.039000 4.912000 13.612000 # C22
247 7 23.910999 6.531000 11.761000 # C23
248 7 22.291000 6.647000 13.605000 # C23
249 8 20.563000 8.395000 13.613000 # C24
250 8 20.481001 10.054000 11.795000 # C24
251 8 18.841999 10.149000 13.627000 # C24
252 8 17.118999 11.903000 13.641000 # C24
253 16 54.216999 33.365002 40.333000 # C7
254 9 50.631001 40.215000 36.730000 # C25
255 11 55.555000 31.190001 41.667999 # C43
256 12 55.515999 34.749001 38.228001 # C44
257 13 51.867001 34.480999 41.446999 # C45
258 14 48.422001 37.992001 41.471001 # C49
259 18 52.307999 36.673000 38.417999 # C97
260 2 53.564999 34.444000 39.678001 # C11
261 2 53.653000 32.778000 41.494999 # C11
262 2 55.528999 32.983002 39.949001 # C11
263 3 46.716999 41.500999 39.763000 # C12
264 4 50.132000 41.446999 36.226002 # C16
265 5 50.046001 39.625000 37.882000 # C17
266 5 51.756001 39.603001 36.113998 # C17
267 5 53.525002 37.897999 36.153000 # C17
268 6 56.202999 30.066999 42.320000 # C22
269 6 56.217999 31.983999 40.692001 # C22
270 6 54.293999 31.670000 42.116001 # C22
271 6 56.215000 33.777000 38.993000 # C22
272 6 56.214001 35.546001 37.283001 # C22
273 6 54.174000 35.075001 38.560001 # C22
274 6 52.500999 33.375000 42.074001 # C22
275 7 52.373001 34.993000 40.223000 # C23
276 7 50.754002 35.109001 42.068001 # C23
277 8 49.025002 36.856998 42.075001 # C24
278 8 48.943001 38.515999 40.257999 # C24
279 8 47.304001 38.611000 42.089001 # C24
280 8 45.581001 40.365002 42.104000 # C24
281 16 25.754999 52.021999 45.054001 # C7
282 9 22.169001 45.171001 48.657001 # C25
283 11 27.093000 54.195999 43.717999 # C43
284 12 27.054001 50.637001 47.158001 # C44
285 13 23.403999 50.905998 43.938999 # C45
286 14 19.959999 47.395000 43.916000 # C49
287 18 23.846001 48.714001 46.969002 # C97
288 2 25.101999 50.942001 45.709000 # C11
289 2 25.191000 52.608002 43.890999 # C11
290 2 27.066000 52.403999 45.437000 # C11
291 3 18.254000 43.884998 45.624001 # C12
292 4 21.670000 43.938999 49.160000 # C16
293 5 21.584000 45.762001 47.504002 # C17
294 5 23.294001 45.784000 49.272999 # C17
295 5 25.063000 47.487999 49.233002 # C17
296 6 27.740999 55.319000 43.066002 # C22
297 6 27.756001 53.403000 44.695000 # C22
298 6 25.832001 53.716000 43.270000 # C22
299 6 27.753000 51.609001 46.394001 # C22
300 6 27.752001 49.841000 48.104000 # C22
301 6 25.711000 50.311001 46.827000 # C22
302 6 24.039000 52.012001 43.312000 # C22
303 7 23.910999 50.393002 45.164001 # C23
304 7 22.291000 50.277000 43.319000 # C23
305 8 20.563000 48.529999 43.311001 # C24
306 8 20.481001 46.869999 45.129002 # C24
307 8 18.841999 46.775002 43.297001 # C24
308 8 17.118999 45.021999 43.283001 # C24
309 16 54.216999 23.559000 16.591000 # C7
310 9 50.631001 16.709000 20.195000 # C25
311 11 55.555000 25.733999 15.256000 # C43
312 12 55.515999 22.174999 18.695999 # C44
313 13 51.867001 22.444000 15.477000 # C45
314 14 48.422001 18.933001 15.454000 # C49
315 18 52.307999 20.252001 18.507000 # C97
316 2 53.564999 22.480000 17.247000 # C11
317 2 53.653000 24.146000 15.429000 # C11
318 2 55.528999 23.941999 16.975000 # C11
319 3 46.716999 15.423000 17.162001 # C12
320 4 50.132000 15.477000 20.698000 # C16
321 5 50.046001 17.299000 19.042000 # C17
322 5 51.756001 17.322001 20.811001 # C17
323 5 53.525002 19.025999 20.771000 # C17
324 6 56.202999 26.857000 14.604000 # C22
325 6 56.217999 24.941000 16.233000 # C22
326 6 54.293999 25.254000 14.808000 # C22
327 6 56.215000 23.146999 17.931999 # C22
328 6 56.214001 21.379000 19.641001 # C22
329 6 54.174000 21.849001 18.365000 # C22
330 6 52.500999 23.549999 14.850000 # C22
331 7 52.373001 21.931000 16.701000 # C23
332 7 50.754002 21.815001 14.857000 # C23
333 8 49.025002 20.066999 14.849000 # C24
334 8 48.943001 18.408001 16.667000 # C24
335 8 47.304001 18.313000 14.835000 # C24
336 8 45.581001 16.559000 14.821000 # C24
337 16 31.170000 52.021999 11.871000 # C7
338 9 34.755001 45.171001 8.267000 # C25
339 11 29.830999 54.195999 13.206000 # C43
340 12 29.871000 50.637001 9.766000 # C44
341 13 33.520000 50.905998 12.985000 # C45
342 14 36.965000 47.395000 13.008000 # C49
343 18 33.077999 48.714001 9.955000 # C97
344 2 31.822001 50.942001 11.216000 # C11
345 2 31.733000 52.608002 13.033000 # C11
346 2 29.858000 52.403999 11.487000 # C11
347 3 38.669998 43.884998 11.300000 # C12
348 4 35.254002 43.938999 7.764000 # C16
349 5 35.340000 45.762001 9.420000 # C17
350 5 33.631001 45.784000 7.651000 # C17
351 5 31.862000 47.487999 7.691000 # C17
352 6 29.183001 55.319000 13.858000 # C22
353 6 29.167999 53.403000 12.229000 # C22
354 6 31.093000 53.716000 13.654000 # C22
355 6 29.172001 51.609001 10.531000 # C22
356 6 29.172001 49.841000 8.821000 # C22
357 6 31.212999 50.311001 10.098000 # C22
358 6 32.884998 52.012001 13.612000 # C22
359 7 33.013000 50.393002 11.761000 # C23
360 7 34.632999 50.277000 13.605000 # C23
361 8 36.361000 48.529999 13.613000 # C24
362 8 36.443001 46.869999 11.795000 # C24
363 8 38.083000 46.775002 13.627000 # C24
364 8 39.806000 45.021999 13.641000 # C24
365 16 2.707000 23.559000 40.333000 # C7
366 9 6.293000 16.709000 36.730000 # C25
367 11 1.369000 25.733999 41.667999 # C43
368 12 1.408000 22.174999 38.228001 # C44
369 13 5.058000 22.444000 41.446999 # C45
370 14 8.502000 18.933001 41.471001 # C49
371 18 4.616000 20.252001 38.417999 # C97
372 2 3.360000 22.480000 39.678001 # C11
373 2 3.271000 24.146000 41.494999 # C11
374 2 1.396000 23.941999 39.949001 # C11
375 3 10.208000 15.423000 39.763000 # C12
376 4 6.792000 15.477000 36.226002 # C16
377 5 6.878000 17.299000 37.882000 # C17
378 5 5.168000 17.322001 36.113998 # C17
379 5 3.399000 19.025999 36.153000 # C17
380 6 0.721000 26.857000 42.320000 # C22
381 6 0.706000 24.941000 40.692001 # C22
382 6 2.631000 25.254000 42.116001 # C22
383 6 0.710000 23.146999 38.993000 # C22
384 6 0.710000 21.379000 37.283001 # C22
385 6 2.751000 21.849001 38.560001 # C22
386 6 4.423000 23.549999 42.074001 # C22
387 7 4.551000 21.931000 40.223000 # C23
388 7 6.171000 21.815001 42.068001 # C23
389 8 7.899000 20.066999 42.075001 # C24
390 8 7.981000 18.408001 40.257999 # C24
391 8 9.621000 18.313000 42.089001 # C24
392 8 11.344000 16.559000 42.104000 # C24
393 16 31.170000 4.903000 45.054001 # C7
394 9 34.755001 11.753000 48.657001 # C25
395 11 29.830999 2.728000 43.717999 # C43
396 12 29.871000 6.287000 47.158001 # C44
397 13 33.520000 6.019000 43.938999 # C45
398 14 36.965000 9.530000 43.916000 # C49
399 18 33.077999 8.210000 46.969002 # C97
400 2 31.822001 5.982000 45.709000 # C11
401 2 31.733000 4.316000 43.890999 # C11
402 2 29.858000 4.521000 45.437000 # C11
403 3 38.669998 13.039000 45.624001 # C12
404 4 35.254002 12.985000 49.160000 # C16
405 5 35.340000 11.163000 47.504002 # C17
406 5 33.631001 11.141000 49.272999 # C17
407 5 31.862000 9.436000 49.233002 # C17
408 6 29.183001 1.605000 43.066002 # C22
409 6 29.167999 3.522000 44.695000 # C22
410 6 31.093000 3.208000 43.270000 # C22
411 6 29.172001 5.315000 46.394001 # C22
412 6 29.172001 7.083000 48.104000 # C22
413 6 31.212999 6.613000 46.827000 # C22
414 6 32.884998 4.912000 43.312000 # C22
415 7 33.013000 6.531000 45.164001 # C23
416 7 34.632999 6.647000 43.319000 # C23
417 8 36.361000 8.395000 43.311001 # C24
418 8 36.443001 10.054000 45.129002 # C24
419 8 38.083000 10.149000 43.297001 # C24
420 8 39.806000 11.903000 43.283001 # C24
421 16 2.707000 33.365002 16.591000 # C7
422 9 6.293000 40.215000 20.195000 # C25
423 11 1.369000 31.190001 15.256000 # C43
424 12 1.408000 34.749001 18.695999 # C44
425 13 5.058000 34.480999 15.477000 # C45
426 14 8.502000 37.992001 15.454000 # C49
427 18 4.616000 36.673000 18.507000 # C97
428 2 3.360000 34.444000 17.247000 # C11
429 2 3.271000 32.778000 15.429000 # C11
430 2 1.396000 32.983002 16.975000 # C11
431 3 10.208000 41.500999 17.162001 # C12
432 4 6.792000 41.446999 20.698000 # C16
433 5 6.878000 39.625000 19.042000 # C17
434 5 5.168000 39.603001 20.811001 # C17
435 5 3.399000 37.897999 20.771000 # C17
436 6 0.721000 30.066999 14.604000 # C22
437 6 0.706000 31.983999 16.233000 # C22
438 6 2.631000 31.670000 14.808000 # C22
439 6 0.710000 33.777000 17.931999 # C22
440 6 0.710000 35.546001 19.641001 # C22
441 6 2.751000 35.075001 18.365000 # C22
442 6 4.423000 33.375000 14.850000 # C22
443 7 4.551000 34.993000 16.701000 # C23
444 7 6.171000 35.109001 14.857000 # C23
445 8 7.899000 36.856998 14.849000 # C24
446 8 7.981000 38.515999 16.667000 # C24
447 8 9.621000 38.611000 14.835000 # C24
448 8 11.344000 40.365002 14.821000 # C24
449 16 11.871000 25.754999 4.903000 # C7
450 9 8.267000 22.169001 11.753000 # C25
451 11 13.206000 27.093000 2.728000 # C43
452 12 9.766000 27.054001 6.287000 # C44
453 13 12.985000 23.403999 6.019000 # C45
454 14 13.008000 19.959999 9.530000 # C49
455 18 9.955000 23.846001 8.210000 # C97
456 2 11.216000 25.101999 5.982000 # C11
457 2 13.033000 25.191000 4.316000 # C11
458 2 11.487000 27.066000 4.521000 # C11
459 3 11.300000 18.254000 13.039000 # C12
460 4 7.764000 21.670000 12.985000 # C16
461 5 9.420000 21.584000 11.163000 # C17
462 5 7.651000 23.294001 11.141000 # C17
463 5 7.691000 25.063000 9.436000 # C17
464 6 13.858000 27.740999 1.605000 # C22
465 6 12.229000 27.756001 3.522000 # C22
466 6 13.654000 25.832001 3.208000 # C22
467 6 10.531000 27.753000 5.315000 # C22
468 6 8.821000 27.752001 7.083000 # C22
469 6 10.098000 25.711000 6.613000 # C22
470 6 13.612000 24.039000 4.912000 # C22
471 7 11.761000 23.910999 6.531000 # C23
472 7 13.605000 22.291000 6.647000 # C23
473 8 13.613000 20.563000 8.395000 # C24
474 8 11.795000 20.481001 10.054000 # C24
475 8 13.627000 18.841999 10.149000 # C24
476 8 13.641000 17.118999 11.903000 # C24
477 16 40.333000 54.216999 33.365002 # C7
478 9 36.730000 50.631001 40.215000 # C25
479 11 41.667999 55.555000 31.190001 # C43
480 12 38.228001 55.515999 34.749001 # C44
481 13 41.446999 51.867001 34.480999 # C45
482 14 41.471001 48.422001 37.992001 # C49
483 18 38.417999 52.307999 36.673000 # C97
484 2 39.678001 53.564999 34.444000 # C11
485 2 41.494999 53.653000 32.778000 # C11
486 2 39.949001 55.528999 32.983002 # C11
487 3 39.763000 46.716999 41.500999 # C12
488 4 36.226002 50.132000 41.446999 # C16
489 5 37.882000 50.046001 39.625000 # C17
490 5 36.113998 51.756001 39.603001 # C17
491 5 36.153000 53.525002 37.897999 # C17
492 6 42.320000 56.202999 30.066999 # C22
493 6 40.692001 56.217999 31.983999 # C22
494 6 42.116001 54.293999 31.670000 # C22
495 6 38.993000 56.215000 33.777000 # C22
496 6 37.283001 56.214001 35.546001 # C22
497 6 38.560001 54.174000 35.075001 # C22
498 6 42.074001 52.500999 33.375000 # C22
499 7 40.223000 52.373001 34.993000 # C23
500 7 42.068001 50.754002 35.109001 # C23
501 8 42.075001 49.025002 36.856998 # C24
502 8 40.257999 48.943001 38.515999 # C24
503 8 42.089001 47.304001 38.611000 # C24
504 8 42.104000 45.581001 40.365002 # C24
505 16 45.054001 25.754999 52.021999 # C7
506 9 48.657001 22.169001 45.171001 # C25
507 11 43.717999 27.093000 54.195999 # C43
508 12 47.158001 27.054001 50.637001 # C44
509 13 43.938999 23.403999 50.905998 # C45
510 14 43.916000 19.959999 47.395000 # C49
511 18 46.969002 23.846001 48.714001 # C97
512 2 45.709000 25.101999 50.942001 # C11
513 2 43.890999 25.191000 52.608002 # C11
514 2 45.437000 27.066000 52.403999 # C11
515 3 45.624001 18.254000 43.884998 # C12
516 4 49.160000 21.670000 43.938999 # C16
517 5 47.504002 21.584000 45.762001 # C17
518 5 49.272999 23.294001 45.784000 # C17
519 5 49.233002 25.063000 47.487999 # C17
520 6 43.066002 27.740999 55.319000 # C22
521 6 44.695000 27.756001 53.403000 # C22
522 6 43.270000 25.832001 53.716000 # C22
523 6 46.394001 27.753000 51.609001 # C22
524 6 48.104000 27.752001 49.841000 # C22
525 6 46.827000 25.711000 50.311001 # C22
526 6 43.312000 24.039000 52.012001 # C22
527 7 45.164001 23.910999 50.393002 # C23
528 7 43.319000 22.291000 50.277000 # C23
529 8 43.311001 20.563000 48.529999 # C24
530 8 45.129002 20.481001 46.869999 # C24
531 8 43.297001 18.841999 46.775002 # C24
532 8 43.283001 17.118999 45.021999 # C24
533 16 16.591000 54.216999 23.559000 # C7
534 9 20.195000 50.631001 16.709000 # C25
535 11 15.256000 55.555000 25.733999 # C43
536 12 18.695999 55.515999 22.174999 # C44
537 13 15.477000 51.867001 22.444000 # C45
538 14 15.454000 48.422001 18.933001 # C49
539 18 18.507000 52.307999 20.252001 # C97
540 2 17.247000 53.564999 22.480000 # C11
541 2 15.429000 53.653000 24.146000 # C11
542 2 16.975000 55.528999 23.941999 # C11
543 3 17.162001 46.716999 15.423000 # C12
544 4 20.698000 50.132000 15.477000 # C16
545 5 19.042000 50.046001 17.299000 # C17
546 5 20.811001 51.756001 17.322001 # C17
547 5 20.771000 53.525002 19.025999 # C17
548 6 14.604000 56.202999 26.857000 # C22
549 6 16.233000 56.217999 24.941000 # C22
550 6 14.808000 54.293999 25.254000 # C22
551 6 17.931999 56.215000 23.146999 # C22
552 6 19.641001 56.214001 21.379000 # C22
553 6 18.365000 54.174000 21.849001 # C22
554 6 14.850000 52.500999 23.549999 # C22
555 7 16.701000 52.373001 21.931000 # C23
556 7 14.857000 50.754002 21.815001 # C23
557 8 14.849000 49.025002 20.066999 # C24
558 8 16.667000 48.943001 18.408001 # C24
559 8 14.835000 47.304001 18.313000 # C24
560 8 14.821000 45.581001 16.559000 # C24
561 16 11.871000 31.170000 52.021999 # C7
562 9 8.267000 34.755001 45.171001 # C25
563 11 13.206000 29.830999 54.195999 # C43
564 12 9.766000 29.871000 50.637001 # C44
565 13 12.985000 33.520000 50.905998 # C45
566 14 13.008000 36.965000 47.395000 # C49
567 18 9.955000 33.077999 48.714001 # C97
568 2 11.216000 31.822001 50.942001 # C11
569 2 13.033000 31.733000 52.608002 # C11
570 2 11.487000 29.858000 52.403999 # C11
571 3 11.300000 38.669998 43.884998 # C12
572 4 7.764000 35.254002 43.938999 # C16
573 5 9.420000 35.340000 45.762001 # C17
574 5 7.651000 33.631001 45.784000 # C17
575 5 7.691000 31.862000 47.487999 # C17
576 6 13.858000 29.183001 55.319000 # C22
577 6 12.229000 29.167999 53.403000 # C22
578 6 13.654000 31.093000 53.716000 # C22
579 6 10.531000 29.172001 51.609001 # C22
580 6 8.821000 29.172001 49.841000 # C22
581 6 10.098000 31.212999 50.311001 # C22
582 6 13.612000 32.884998 52.012001 # C22
583 7 11.761000 33.013000 50.393002 # C23
584 7 13.605000 34.632999 50.277000 # C23
585 8 13.613000 36.361000 48.529999 # C24
586 8 11.795000 36.443001 46.869999 # C24
587 8 13.627000 38.083000 46.775002 # C24
588 8 13.641000 39.806000 45.021999 # C24
589 16 40.333000 2.707000 23.559000 # C7
590 9 36.730000 6.293000 16.709000 # C25
591 11 41.667999 1.369000 25.733999 # C43
592 12 38.228001 1.408000 22.174999 # C44
593 13 41.446999 5.058000 22.444000 # C45
594 14 41.471001 8.502000 18.933001 # C49
595 18 38.417999 4.616000 20.252001 # C97
596 2 39.678001 3.360000 22.480000 # C11
597 2 41.494999 3.271000 24.146000 # C11
598 2 39.949001 1.396000 23.941999 # C11
599 3 39.763000 10.208000 15.423000 # C12
600 4 36.226002 6.792000 15.477000 # C16
601 5 37.882000 6.878000 17.299000 # C17
602 5 36.113998 5.168000 17.322001 # C17
603 5 36.153000 3.399000 19.025999 # C17
604 6 42.320000 0.721000 26.857000 # C22
605 6 40.692001 0.706000 24.941000 # C22
606 6 42.116001 2.631000 25.254000 # C22
607 6 38.993000 0.710000 23.146999 # C22
608 6 37.283001 0.710000 21.379000 # C22
609 6 38.560001 2.751000 21.849001 # C22
610 6 42.074001 4.423000 23.549999 # C22
611 7 40.223000 4.551000 21.931000 # C23
612 7 42.068001 6.171000 21.815001 # C23
613 8 42.075001 7.899000 20.066999 # C24
614 8 40.257999 7.981000 18.408001 # C24
615 8 42.089001 9.621000 18.313000 # C24
616 8 42.104000 11.344000 16.559000 # C24
617 16 45.054001 31.170000 4.903000 # C7
618 9 48.657001 34.755001 11.753000 # C25
619 11 43.717999 29.830999 2.728000 # C43
620 12 47.158001 29.871000 6.287000 # C44
621 13 43.938999 33.520000 6.019000 # C45
622 14 43.916000 36.965000 9.530000 # C49
623 18 46.969002 33.077999 8.210000 # C97
624 2 45.709000 31.822001 5.982000 # C11
625 2 43.890999 31.733000 4.316000 # C11
626 2 45.437000 29.858000 4.521000 # C11
627 3 45.624001 38.669998 13.039000 # C12
628 4 49.160000 35.254002 12.985000 # C16
629 5 47.504002 35.340000 11.163000 # C17
630 5 49.272999 33.631001 11.141000 # C17
631 5 49.233002 31.862000 9.436000 # C17
632 6 43.066002 29.183001 1.605000 # C22
633 6 44.695000 29.167999 3.522000 # C22
634 6 43.270000 31.093000 3.208000 # C22
635 6 46.394001 29.172001 5.315000 # C22
636 6 48.104000 29.172001 7.083000 # C22
637 6 46.827000 31.212999 6.613000 # C22
638 6 43.312000 32.884998 4.912000 # C22
639 7 45.164001 33.013000 6.531000 # C23
640 7 43.319000 34.632999 6.647000 # C23
641 8 43.311001 36.361000 8.395000 # C24
642 8 45.129002 36.443001 10.054000 # C24
643 8 43.297001 38.083000 10.149000 # C24
644 8 43.283001 39.806000 11.903000 # C24
645 16 16.591000 2.707000 33.365002 # C7
646 9 20.195000 6.293000 40.215000 # C25
647 11 15.256000 1.369000 31.190001 # C43
648 12 18.695999 1.408000 34.749001 # C44
649 13 15.477000 5.058000 34.480999 # C45
650 14 15.454000 8.502000 37.992001 # C49
651 18 18.507000 4.616000 36.673000 # C97
652 2 17.247000 3.360000 34.444000 # C11
653 2 15.429000 3.271000 32.778000 # C11
654 2 16.975000 1.396000 32.983002 # C11
655 3 17.162001 10.208000 41.500999 # C12
656 4 20.698000 6.792000 41.446999 # C16
657 5 19.042000 6.878000 39.625000 # C17
658 5 20.811001 5.168000 39.603001 # C17
659 5 20.771000 3.399000 37.897999 # C17
660 6 14.604000 0.721000 30.066999 # C22
661 6 16.233000 0.706000 31.983999 # C22
662 6 14.808000 2.631000 31.670000 # C22
663 6 17.931999 0.710000 33.777000 # C22
664 6 19.641001 0.710000 35.546001 # C22
665 6 18.365000 2.751000 35.075001 # C22
666 6 14.850000 4.423000 33.375000 # C22
667 7 16.701000 4.551000 34.993000 # C23
668 7 14.857000 6.171000 35.109001 # C23
669 8 14.849000 7.899000 36.856998 # C24
670 8 16.667000 7.981000 38.515999 # C24
671 8 14.835000 9.621000 38.611000 # C24
672 8 14.821000 11.344000 40.365002 # C24
673 16 11.871000 4.903000 31.170000 # C7
674 9 8.267000 11.753000 34.755001 # C25
675 11 13.206000 2.728000 29.830999 # C43
676 12 9.766000 6.287000 29.871000 # C44
677 13 12.985000 6.019000 33.520000 # C45
678 14 13.008000 9.530000 36.965000 # C49
679 18 9.955000 8.210000 33.077999 # C97
680 2 11.216000 5.982000 31.822001 # C11
681 2 13.033000 4.316000 31.733000 # C11
682 2 11.487000 4.521000 29.858000 # C11
683 3 11.300000 13.039000 38.669998 # C12
684 4 7.764000 12.985000 35.254002 # C16
685 5 9.420000 11.163000 35.340000 # C17
686 5 7.651000 11.141000 33.631001 # C17
687 5 7.691000 9.436000 31.862000 # C17
688 6 13.858000 1.605000 29.183001 # C22
689 6 12.229000 3.522000 29.167999 # C22
690 6 13.654000 3.208000 31.093000 # C22
691 6 10.531000 5.315000 29.172001 # C22
692 6 8.821000 7.083000 29.172001 # C22
693 6 10.098000 6.613000 31.212999 # C22
694 6 13.612000 4.912000 32.884998 # C22
695 7 11.761000 6.531000 33.013000 # C23
696 7 13.605000 6.647000 34.632999 # C23
697 8 13.613000 8.395000 36.361000 # C24
698 8 11.795000 10.054000 36.443001 # C24
699 8 13.627000 10.149000 38.083000 # C24
700 8 13.641000 11.903000 39.806000 # C24