12288
Atoms. Timestep: 5030000
1 18.6871 15.9498 44.2016
1 37.1802 9.39078 34.8414
1 9.63224 19.9591 49.4904
1 25.3836 8.64089 49.425
1 21.9679 20.4592 34.4722
1 34.0239 5.07206 44.6775
1 46.1002 5.17031 29.528
1 30.7345 16.9949 29.7323
1 23.3865 14.1887 41.728
1 15.7581 20.1253 41.9325
1 17.4306 14.2103 49.362
1 38.6231 11.3375 29.8035
1 32.4069 11.0811 37.2299
1 40.1155 5.24901 37.1564
1 5.15688 22.0574 52.1818
1 13.0674 16.4234 52.0888
1 11.3955 22.2763 44.7087
1 21.009 10.9042 52.0858
1 28.6136 4.91445 52.1717
1 26.4207 10.1592 44.1126
1 17.5417 22.5263 37.1939
1 24.6692 16.0031 36.5495
1 23.5148 22.6923 29.5196
1 32.4499 2.76637 49.6267
1 38.1369 2.73851 41.7454
1 30.6698 8.65079 41.9388
1 44.0951 2.74819 34.1344
1 50.1743 2.66411 26.5858
1 43.1817 9.34449 27.2334
1 28.9143 14.4415 34.3658
1 35.4469 15.204 27.293
1 27.6273 20.9717 27.2142
1 16.3917 16.9134 45.4936
1 20.2927 14.0345 45.4548
1 19.4487 17.0023 41.718
1 36.4282 8.37336 37.3353
1 39.511 8.46003 33.5925
1 35.5331 11.2346 33.5315
1 11.875 18.9219 48.1458
1 8.25816 22.1229 48.4217
1 9.06073 19.1543 52.1067
1 27.7973 7.90527 48.2642
1 23.6289 10.357 48.0555
1 24.8908 8.02457 52.102
1 24.3881 19.7294 33.3304
1 20.5685 22.6297 33.4014
1 21.1084 19.2701 36.8688
1 34.8127 6.16222 42.2121
1 31.9096 6.18614 46.0149
1 35.17 2.72433 45.5866
1 46.8593 6.18023 27.046
1 43.9684 6.34251 30.9346
1 47.146 2.731 30.3782
1 31.5473 18.0948 27.2943
1 28.567 18.1049 31.084
1 32.283 14.991 30.9504
1 25.8909 13.6148 40.6586
1 21.7524 16.0556 40.4403
1 22.6376 13.1455 44.2176
1 17.9932 19.0989 40.5902
1 14.4893 22.4119 40.967
1 14.9034 18.9675 44.3391
1 19.6666 13.1648 48.0342
1 15.7296 15.9905 48.0522
1 17.0639 13.6972 52.0851
1 39.3459 12.3156 27.2919
1 36.2709 12.2342 31.0293
1 40.2302 9.43127 31.0743
1 33.114 12.0291 34.6973
1 30.1707 12.1326 38.5146
1 34.0502 9.22727 38.5381
1 40.9821 6.38964 34.755
1 37.936 6.34037 38.5235
1 41.0908 2.74885 37.9196
1 2.85782 23.1253 53.5158
1 6.87507 20.2822 53.4856
1 6.05596 23.2045 49.7931
1 10.9304 17.5961 53.4756
1 14.9688 14.9247 53.4731
1 13.4854 17.0224 49.3888
1 9.26301 23.4017 46.136
1 12.6648 19.9987 45.6815
1 12.3761 23.5473 42.411
1 18.9459 12.1826 53.4726
1 22.836 9.33446 53.4723
1 21.3849 11.406 49.367
1 26.5515 6.27806 53.4793
1 29.7219 2.61435 53.5699
1 29.6992 6.50475 49.8644
1 24.249 11.2229 45.4779
1 27.7664 7.93274 45.2352
1 27.6963 12.0942 42.2151
1 15.4187 23.6496 38.6304
1 18.8535 20.2705 38.1908
1 18.4219 23.7301 34.8189
1 22.5276 17.1202 37.9623
1 25.9944 13.7671 37.6684
1 26.057 17.9499 34.7556
1 21.4605 23.8431 31.0332
1 24.564 20.2078 30.3646
1 25.1711 24.7092 28.0352
1 31.7478 1.30245 52.0649
1 34.0415 1.40425 47.7762
1 31.6164 5.6373 48.7829
1 36.9594 1.3857 43.8976
1 39.8887 1.39317 40.0456
1 37.0775 5.18548 40.926
1 29.7476 7.19561 44.1886
1 33.22 8.08768 40.9561
1 29.7056 11.3946 41.2062
1 42.8492 1.39398 36.2305
1 45.8964 1.39235 32.4825
1 43.1295 5.24737 33.3608
1 49.0108 1.38239 28.773
1 52.1981 1.35359 25.0631
1 48.9809 4.98963 25.6297
1 42.4983 8.41493 29.7725
1 45.3934 8.26107 25.89
1 41.6367 11.3331 26.0141
1 28.0011 13.0479 36.6534
1 31.4494 13.8414 33.3651
1 28.0261 17.2 33.7091
1 34.656 14.1322 29.748
1 37.7936 14.295 26.0635
1 33.9209 17.2184 26.0876
1 26.5164 19.4125 29.2948
1 30.0908 20.1966 26.1524
1 27.0819 23.8943 26.9407
1 19.8438 15.4845 43.5657
1 17.9112 16.9451 43.5977
1 18.3271 15.4548 45.4601
1 37.5471 9.88384 33.5848
1 35.9955 9.82572 35.4462
1 37.9806 8.43315 35.4737
1 8.51968 20.4778 50.166
1 10.4252 18.9814 50.1001
1 10.0237 20.4783 48.2505
1 24.2465 9.15435 50.062
1 26.2685 7.819 50.1366
1 25.6411 8.9856 48.0911
1 20.8313 20.9448 35.1294
1 22.7135 19.4327 35.0658
1 22.362 21.0159 33.2467
1 33.6618 4.55194 45.9275
1 35.1199 4.54486 43.9942
1 33.2465 6.0422 44.0414
1 45.6611 4.61506 30.7334
1 47.1371 4.56203 28.8108
1 45.4273 6.27608 28.9991
1 30.3684 16.471 30.978
1 31.9053 16.5358 29.1155
1 29.9446 17.9743 29.1113
1 22.1903 14.598 42.3273
1 24.2341 13.3088 42.4102
1 23.7313 14.6631 40.4566
1 14.6549 20.6481 42.6164
1 16.4457 19.0286 42.4619
1 16.202 20.7182 40.7449
1 16.3298 14.7486 50.0364
1 18.3097 13.3558 50.0331
1 17.6933 14.572 48.037
1 38.2654 10.8543 31.0659
1 39.7808 10.8633 29.1774
1 37.8169 12.2877 29.1679
1 32.0746 10.621 38.5089
1 33.6014 10.6598 36.6346
1 31.5414 11.9402 36.5404
1 39.6527 4.64769 38.3303
1 41.1571 4.6583 36.435
1 39.4659 6.37725 36.6459
1 6.27446 21.5309 51.5132
1 4.42914 23.1108 51.6181
1 4.86365 21.6795 53.4982
1 14.1451 15.8569 51.3999
1 12.1476 17.2266 51.4078
1 12.9553 16.2657 53.4739
1 12.4714 21.7279 44.0025
1 10.8302 23.481 44.2818
1 10.9137 21.657 45.867
1 22.0619 10.2939 51.3996
1 20.0983 11.7066 51.3961
1 20.9044 10.7745 53.4724
1 29.6988 4.20828 51.6608
1 27.9541 5.9883 51.5224
1 28.2101 4.53457 53.4759
1 27.3331 9.41728 43.3588
1 25.8262 11.3443 43.641
1 26.1127 9.67321 45.4134
1 18.6238 21.9845 36.491
1 16.9231 23.6908 36.7267
1 17.0959 21.9242 38.3762
1 25.5706 15.2443 35.7874
1 24.1366 17.2444 36.1377
1 24.3241 15.4944 37.8359
1 24.344 21.9455 28.6693
1 23.1255 24.0235 29.26
1 23.085 22.0695 30.7311
1 32.8506 3.45329 48.4397
1 31.5243 3.27457 50.5386
1 32.8663 1.42006 49.8814
1 38.666 3.39213 40.6292
1 37.1808 3.3759 42.5392
1 38.4286 1.39088 41.9723
1 31.2193 9.46448 40.9277
1 29.3264 8.70291 42.33
1 31.5057 7.73461 42.6345
1 44.6612 3.39874 33.0356
1 43.148 3.40501 34.9239
1 44.362 1.39357 34.3487
1 50.6632 3.23657 25.4105
1 49.1798 3.30471 27.3357
1 50.5776 1.36787 26.9086
1 43.5301 9.81581 25.9647
1 42.0617 9.86656 27.8892
1 43.9527 8.34517 27.8352
1 29.4721 15.2475 33.353
1 27.5711 14.5078 34.7605
1 29.7526 13.5321 35.0713
1 35.8577 15.7571 26.0758
1 34.2667 15.6489 27.8993
1 36.2272 14.219 27.9082
1 28.2987 21.832 26.3222
1 26.2857 21.1343 27.5848
1 28.3463 19.8926 27.8086
1 15.257 17.405 46.1503
1 17.1833 15.937 46.1073
1 16.7696 17.4282 44.2481
1 19.1393 14.5066 46.0912
1 21.1143 13.1005 46.0954
1 20.646 14.5249 44.1929
1 18.3041 17.4812 42.3657
1 20.2183 16.001 42.3199
1 19.8468 17.5461 40.4906
1 36.0365 7.8411 38.5682
1 37.5968 7.91655 36.7159
1 35.6236 9.32423 36.6982
1 39.1338 7.95503 34.8413
1 40.6498 7.96224 32.9486
1 38.7173 9.42782 32.9676
1 35.1658 10.7392 34.7869
1 36.7258 10.8115 32.935
1 34.7019 12.1457 32.8709
1 12.9946 18.4136 47.4756
1 11.1336 19.9595 47.5725
1 11.5378 18.4635 49.4248
1 9.35212 21.5888 47.7313
1 7.67157 23.3084 47.9721
1 7.7966 21.5354 49.6056
1 10.1575 18.6119 51.4235
1 8.19167 20.0369 51.4541
1 8.9007 18.9288 53.479
1 29.1219 7.75492 47.8494
1 26.8005 8.49743 47.4543
1 27.4936 7.44025 49.5757
1 24.7628 9.84487 47.4132
1 22.7803 11.2557 47.397
1 23.3681 10.0048 49.3826
1 25.9791 7.43688 51.449
1 24.0193 8.8685 51.4109
1 24.7274 7.84706 53.4756
1 25.727 19.5614 32.972
1 23.5028 20.5266 32.5844
1 23.9499 19.0768 34.5161
1 21.6545 22.0924 32.6994
1 19.9256 23.7735 32.9144
1 20.1461 22.0453 34.6023
1 22.2637 18.7997 36.2317
1 20.4064 20.3539 36.3263
1 20.6752 18.6804 38.0628
1 35.2222 6.73022 41.0033
1 33.6162 6.5698 42.8036
1 35.5427 5.12353 42.7946
1 32.0522 6.45058 44.645
1 31.0442 6.93848 46.7943
1 32.6629 5.1779 46.6737
1 35.6903 3.35659 44.4509
1 34.2204 3.36365 46.3926
1 35.4716 1.38163 45.8158
1 47.2156 6.65719 25.7822
1 45.7908 6.76029 27.7393
1 47.5491 5.08992 27.5842
1 44.3502 6.84661 29.6876
1 42.882 6.90186 31.6175
1 44.6242 5.22084 31.4518
1 47.6889 3.35564 29.2518
1 46.1784 3.38417 31.1481
1 47.4486 1.38937 30.6272
1 31.9913 18.6897 26.107
1 30.3537 18.5242 27.8892
1 32.3122 17.0878 27.8956
1 28.7618 18.4313 29.7274
1 27.6894 18.803 31.9191
1 29.2846 17.0235 31.6694
1 32.6815 15.5434 29.7278
1 31.1029 15.4305 31.561
1 33.0701 14.0158 31.5732
1 27.2426 13.5306 40.3115
1 24.9246 14.2364 39.8467
1 25.5046 13.0293 41.8955
1 22.9041 15.5824 39.801
1 20.9891 17.0637 39.841
1 21.3814 15.5449 41.6899
1 23.8361 12.737 43.6236
1 21.8218 14.084 43.5757
1 22.2764 12.6374 45.4696
1 19.1204 18.6006 39.9268
1 17.306 20.1965 40.0613
1 17.5722 18.5295 41.7979
1 15.5625 21.8623 40.2576
1 13.9044 23.6027 40.5262
1 14.0213 21.7969 42.1332
1 16.0288 18.4666 43.6742
1 14.2095 20.0574 43.8044
1 14.4983 18.4226 45.5631
1 20.799 12.6615 47.385
1 18.8223 14.0686 47.3812
1 19.4079 12.81 49.3612
1 16.8562 15.4874 47.3913
1 14.9091 16.9301 47.4199
1 15.4542 15.6108 49.3701
1 18.1245 13.104 51.3953
1 16.1394 14.486 51.3963
1 16.9665 13.565 53.4728
1 39.7221 12.8231 26.045
1 38.1868 12.7883 27.916
1 40.1354 11.3424 27.9129
1 36.6425 12.7392 29.7793
1 35.0794 12.6598 31.626
1 37.0897 11.303 31.6771
1 40.5812 9.90361 29.8058
1 39.0769 9.91095 31.7052
1 41.0179 8.45432 31.6922
1 33.4927 12.5426 33.452
1 31.8899 12.4014 35.2654
1 33.9621 11.145 35.3733
1 30.3294 12.3459 37.1315
1 29.2531 12.833 39.3033
1 30.9621 11.1496 39.1713
1 34.4302 9.74594 37.2953
1 32.8571 9.646 39.1371
1 34.8493 8.2697 39.1706
1 41.3892 6.92672 33.5295
1 39.877 6.92442 35.4262
1 41.625 5.25575 35.2612
1 38.3482 6.89587 37.308
1 36.7997 6.83562 39.1704
1 38.6012 5.22678 39.046
1 41.6443 3.40565 36.8183
1 40.1513 3.40155 38.7207
1 41.3589 1.39389 38.1298
1 1.66692 23.6548 54.154
1 3.77646 22.2778 54.1732
1 3.28138 23.6081 52.2631
1 5.80758 20.8856 54.1716
1 7.84321 19.535 54.1714
1 7.08527 20.571 52.1315
1 4.94728 23.7268 50.4701
1 6.68813 22.0592 50.2835
1 6.59355 23.8549 48.676
1 9.88151 18.2086 54.1716
1 11.9152 16.8877 54.172
1 11.0604 17.7801 52.0946
1 13.9381 15.5588 54.1723
1 15.9458 14.2124 54.1726
1 15.0708 15.0662 52.0861
1 12.3758 17.5445 50.0643
1 14.349 16.1404 50.0455
1 13.7848 17.4339 48.0852
1 8.20598 23.9647 46.8579
1 9.83102 22.2001 46.5672
1 9.78579 24.0537 45.0143
1 11.5584 20.52 46.3623
1 13.375 18.9264 46.23
1 13.1054 20.5802 44.4872
1 11.3377 24.1247 43.1485
1 12.9483 22.3472 42.8423
1 12.8669 24.1808 41.2647
1 17.9351 12.8434 54.1728
1 19.9039 11.4488 54.173
1 19.0436 12.3106 52.085
1 21.8473 10.0239 54.1733
1 23.7535 8.55656 54.1739
1 22.9591 9.47678 52.089
1 20.2858 11.9558 50.0342
1 22.2608 10.5502 50.041
1 21.6451 11.7605 48.0405
1 25.6013 7.02156 54.1745
1 27.324 5.356 54.1741
1 26.8054 6.53569 52.1319
1 28.8097 3.47148 54.1804
1 30.4482 1.53388 54.162
1 30.141 3.05585 52.3514
1 28.3878 6.61884 50.3361
1 30.6184 4.36559 50.5945
1 30.0824 7.4098 48.8438
1 23.0936 11.6973 46.1079
1 25.0377 10.2466 46.1015
1 24.6292 11.7652 44.245
1 26.8986 8.66814 46.0538
1 29.7342 7.45114 46.6031
1 27.6305 8.10426 43.8235
1 26.3547 12.1378 42.606
1 28.3918 9.77049 42.4725
1 28.1445 13.124 41.3373
1 14.3784 24.2256 39.367
1 16.0197 22.4711 39.0835
1 15.8772 24.2626 37.4592
1 17.7458 20.7887 38.8715
1 19.5439 19.1754 38.7222
1 19.2884 20.8622 36.9986
1 17.368 24.2955 35.5455
1 19.0571 22.5799 35.3002
1 18.8597 24.3295 33.6317
1 21.392 17.6136 38.6172
1 23.2492 16.0638 38.5314
1 22.9683 17.7136 36.7714
1 25.0868 14.472 38.4677
1 27.9319 13.3203 39.0811
1 25.8707 13.9298 36.2577
1 24.7215 18.0649 35.1531
1 26.6378 15.5806 34.8984
1 26.5849 19.0108 33.9639
1 20.3731 24.3802 31.7341
1 22.065 22.665 31.4876
1 21.9696 24.5055 29.9084
1 23.7164 20.8993 31.2399
1 26.4121 19.4066 31.7328
1 24.5028 20.5624 28.9845
1 23.8326 24.9168 28.4275
1 25.4478 22.2744 27.8148
1 25.9663 25.8185 27.6061
1 31.2075 0.704554 53.2507
1 32.4917 0.695152 51.0441
1 31.2336 2.50987 51.6936
1 33.5121 0.703286 48.8628
1 34.8107 0.699883 46.8404
1 33.7277 2.75782 47.5621
1 30.6777 5.4685 49.8443
1 32.4023 4.74989 48.0225
1 31.2636 6.89076 48.1907
1 36.2923 0.698199 44.9152
1 37.7732 0.698556 42.9938
1 36.6577 2.72882 43.663
1 39.2322 0.698592 41.0639
1 40.692 0.69846 39.1397
1 39.6103 2.74528 39.8289
1 36.6343 4.58762 42.109
1 38.1468 4.62478 40.223
1 36.3863 6.27178 40.3811
1 29.0734 7.39348 45.43
1 31.1002 7.10666 43.8448
1 28.8546 7.65872 43.1814
1 32.7878 7.47689 42.1373
1 34.4389 7.70897 40.3843
1 32.435 9.06796 40.3409
1 28.6498 11.0404 42.0966
1 30.6301 10.6556 40.4637
1 29.3825 12.6935 40.7165
1 42.1693 0.698371 37.2313
1 43.6702 0.698392 35.3417
1 42.5853 2.74986 36.0214
1 45.1956 0.698506 33.4709
1 46.744 0.698652 31.616
1 45.6176 2.7428 32.2556
1 42.6623 4.65771 34.5388
1 44.1659 4.64465 32.6401
1 42.4845 6.37897 32.852
1 48.3105 0.698625 29.7709
1 49.8879 0.697739 27.9247
1 48.6681 2.70722 28.4909
1 51.4861 0.694561 26.0767
1 48.5863 4.48022 26.8684
1 42.142 7.93745 31.0375
1 43.6075 7.8798 29.1073
1 41.717 9.40096 29.1614
1 45.0485 7.79455 27.1612
1 41.2767 10.8468 27.274
1 27.3102 13.258 37.8854
1 29.3561 12.9497 36.3091
1 27.1031 13.4808 35.6317
1 31.0308 13.2581 34.5671
1 32.6695 13.4632 32.7945
1 30.6729 14.8308 32.7519
1 26.9437 16.8511 34.5667
1 28.9225 16.4688 32.9276
1 27.7944 18.5475 33.3172
1 34.2677 13.6 30.9818
1 35.8403 13.6942 29.1453
1 33.8654 15.1041 29.1238
1 37.3996 13.7639 27.2955
1 33.4955 16.6464 27.2917
1 25.8132 19.5358 30.5319
1 27.8644 19.2129 28.9646
1 25.6973 20.0679 28.3257
1 29.5965 19.5357 27.284
1 25.8874 23.5399 27.6383
1 -18.686 -15.9498 44.2016
1 -18.6857 15.9498 -44.2016
1 -18.6857 15.9498 44.2016
1 -15.9497 -44.2016 -18.6863
1 -15.9497 -44.2016 18.6863
1 -15.9489 44.2016 -18.6864
1 -15.9489 44.2016 18.6864
1 -44.2013 -18.6864 -15.9498
1 -44.2013 -18.6864 15.9498
1 -44.2009 18.6864 -15.9498
1 -44.2009 18.6864 15.9498
1 44.202 -18.6864 -15.9498
1 44.202 -18.6864 15.9498
1 44.2024 18.6864 -15.9498
1 44.2024 18.6864 15.9498
1 15.95 -44.2016 -18.6864
1 15.95 -44.2016 18.6864
1 15.9508 44.2016 -18.6863
1 15.9508 44.2016 18.6863
1 18.6868 -15.9498 -44.2016
1 18.6868 -15.9498 44.2016
1 18.6871 15.9498 -44.2016
1 -18.686 -15.9498 -44.2016
1 -37.1791 -9.39078 34.8415
1 -37.1789 9.3908 -34.8414
1 -37.1789 9.39079 34.8414
1 -9.39057 -34.8414 -37.1796
1 -9.39057 -34.8414 37.1796
1 -9.3899 34.8414 -37.1795
1 -9.3899 34.8414 37.1795
1 -34.8413 -37.1796 -9.39079
1 -34.8413 -37.1796 9.39079
1 -34.8405 37.1796 -9.39078
1 -34.8405 37.1796 9.39078
1 34.8416 -37.1796 -9.39078
1 34.8416 -37.1796 9.39078
1 34.8424 37.1796 -9.39079
1 34.8424 37.1796 9.39079
1 9.391 -34.8414 -37.1795
1 9.391 -34.8414 37.1795
1 9.39167 34.8414 -37.1796
1 9.39167 34.8414 37.1796
1 37.18 -9.39079 -34.8414
1 37.18 -9.39079 34.8414
1 37.1802 9.39078 -34.8415
1 -37.1791 -9.39078 -34.8415
1 -9.63114 -19.9591 49.4904
1 -9.63078 19.9591 -49.4904
1 -9.63078 19.9591 49.4904
1 -19.959 -49.4904 -9.63148
1 -19.959 -49.4904 9.63148
1 -19.9581 49.4904 -9.63154
1 -19.9581 49.4904 9.63154
1 -49.49 -9.63151 -19.9591
1 -49.49 -9.63151 19.9591
1 -49.4897 9.63151 -19.9591
1 -49.4897 9.6315 19.9591
1 49.4908 -9.63151 -19.9591
1 49.4908 -9.63151 19.9591
1 49.4911 9.63151 -19.9591
1 49.4911 9.63151 19.9591
1 19.9592 -49.4904 -9.63154
1 19.9592 -49.4904 9.63154
1 19.9601 49.4904 -9.63147
1 19.9601 49.4904 9.63148
1 9.63188 -19.9591 -49.4904
1 9.63188 -19.9591 49.4904
1 9.63224 19.9591 -49.4904
1 -9.63114 -19.9591 -49.4904
1 -25.3825 -8.64089 49.425
1 -25.3823 8.64095 -49.425
1 -25.3823 8.64095 49.425
1 -8.64087 -49.425 -25.3829
1 -8.64087 -49.425 25.3829
1 -8.63987 49.425 -25.3829
1 -8.63987 49.425 25.3829
1 -49.4247 -25.3829 -8.6409
1 -49.4247 -25.3829 8.6409
1 -49.4242 25.383 -8.64094
1 -49.4242 25.383 8.64094
1 49.4253 -25.383 -8.64094
1 49.4253 -25.383 8.64094
1 49.4258 25.3829 -8.6409
1 49.4258 25.3829 8.6409
1 8.64097 -49.425 -25.3829
1 8.64097 -49.425 25.3829
1 8.64197 49.425 -25.3829
1 8.64197 49.425 25.3829
1 25.3834 -8.64095 -49.425
1 25.3834 -8.64095 49.425
1 25.3836 8.64089 -49.425
1 -25.3825 -8.64089 -49.425
1 -21.9668 -20.4592 34.4722
1 -21.9665 20.4592 -34.4723
1 -21.9665 20.4592 34.4723
1 -20.459 -34.4723 -21.9672
1 -20.459 -34.4723 21.9672
1 -20.4583 34.4723 -21.9672
1 -20.4583 34.4723 21.9672
1 -34.4719 -21.9672 -20.4592
1 -34.4719 -21.9672 20.4592
1 -34.4715 21.9672 -20.4592
1 -34.4715 21.9672 20.4592
1 34.4726 -21.9672 -20.4592
1 34.4726 -21.9672 20.4592
1 34.473 21.9672 -20.4592
1 34.473 21.9672 20.4592
1 20.4594 -34.4723 -21.9672
1 20.4594 -34.4723 21.9672
1 20.4601 34.4723 -21.9672
1 20.4601 34.4723 21.9672
1 21.9676 -20.4592 -34.4723
1 21.9676 -20.4592 34.4723
1 21.9679 20.4592 -34.4722
1 -21.9668 -20.4592 -34.4722
1 -34.0228 -5.07207 44.6775
1 -34.0227 5.0721 -44.6774
1 -34.0227 5.0721 44.6774
1 -5.07196 -44.6775 -34.0233
1 -5.07196 -44.6774 34.0233
1 -5.0711 44.6774 -34.0233
1 -5.0711 44.6774 34.0233
1 -44.6772 -34.0233 -5.07207
1 -44.6772 -34.0233 5.07208
1 -44.6766 34.0233 -5.07209
1 -44.6766 34.0233 5.07209
1 44.6777 -34.0233 -5.07209
1 44.6777 -34.0233 5.07209
1 44.6783 34.0233 -5.07208
1 44.6783 34.0233 5.07207
1 5.0722 -44.6774 -34.0233
1 5.0722 -44.6774 34.0233
1 5.07306 44.6774 -34.0233
1 5.07306 44.6775 34.0233
1 34.0238 -5.0721 -44.6774
1 34.0238 -5.0721 44.6774
1 34.0239 5.07207 -44.6775
1 -34.0228 -5.07206 -44.6775
1 -46.0991 -5.17031 29.528
1 -46.099 5.17035 -29.5279
1 -46.099 5.17035 29.5279
1 -5.17006 -29.528 -46.0997
1 -5.17006 -29.528 46.0997
1 -5.16951 29.5279 -46.0996
1 -5.16951 29.5279 46.0996
1 -29.5278 -46.0996 -5.17034
1 -29.5278 -46.0996 5.17034
1 -29.527 46.0996 -5.17032
1 -29.527 46.0996 5.17032
1 29.528 -46.0996 -5.17032
1 29.528 -46.0996 5.17032
1 29.5289 46.0996 -5.17034
1 29.5289 46.0996 5.17034
1 5.1706 -29.5279 -46.0996
1 5.1706 -29.5279 46.0996
1 5.17115 29.528 -46.0997
1 5.17115 29.528 46.0997
1 46.1001 -5.17035 -29.5279
1 46.1001 -5.17035 29.5279
1 46.1002 5.17031 -29.528
1 -46.0991 -5.17031 -29.528
1 -30.7334 -16.9949 29.7323
1 -30.733 16.9949 -29.7324
1 -30.733 16.9949 29.7324
1 -16.9947 -29.7324 -30.7338
1 -16.9947 -29.7324 30.7338
1 -16.9941 29.7323 -30.7338
1 -16.9941 29.7323 30.7338
1 -29.7321 -30.7337 -16.9949
1 -29.7321 -30.7337 16.9949
1 -29.7315 30.7338 -16.9949
1 -29.7315 30.7338 16.9949
1 29.7326 -30.7338 -16.9949
1 29.7326 -30.7338 16.9949
1 29.7332 30.7337 -16.9949
1 29.7332 30.7337 16.9949
1 16.9952 -29.7323 -30.7338
1 16.9952 -29.7323 30.7338
1 16.9958 29.7324 -30.7338
1 16.9958 29.7324 30.7338
1 30.7341 -16.9949 -29.7324
1 30.7341 -16.9949 29.7324
1 30.7345 16.9949 -29.7323
1 -30.7334 -16.9949 -29.7323
1 -23.3854 -14.1887 41.728
1 -23.3851 14.1888 -41.728
1 -23.3851 14.1888 41.728
1 -14.1886 -41.728 -23.3858
1 -14.1886 -41.728 23.3858
1 -14.1878 41.728 -23.3858
1 -14.1878 41.728 23.3858
1 -41.7277 -23.3858 -14.1887
1 -41.7277 -23.3858 14.1887
1 -41.7272 23.3858 -14.1887
1 -41.7272 23.3858 14.1887
1 41.7283 -23.3858 -14.1887
1 41.7283 -23.3858 14.1887
1 41.7288 23.3858 -14.1887
1 41.7288 23.3858 14.1887
1 14.1889 -41.728 -23.3858
1 14.1889 -41.728 23.3858
1 14.1897 41.728 -23.3858
1 14.1897 41.728 23.3858
1 23.3862 -14.1888 -41.728
1 23.3862 -14.1888 41.728
1 23.3865 14.1887 -41.728
1 -23.3854 -14.1887 -41.728
1 -15.757 -20.1253 41.9325
1 -15.7566 20.1253 -41.9325
1 -15.7566 20.1253 41.9325
1 -20.1251 -41.9325 -15.7573
1 -20.1251 -41.9325 15.7573
1 -20.1243 41.9325 -15.7574
1 -20.1243 41.9325 15.7574
1 -41.9321 -15.7573 -20.1252
1 -41.9321 -15.7574 20.1252
1 -41.9318 15.7574 -20.1253
1 -41.9318 15.7574 20.1253
1 41.9329 -15.7574 -20.1253
1 41.9329 -15.7574 20.1253
1 41.9332 15.7574 -20.1252
1 41.9332 15.7574 20.1252
1 20.1254 -41.9325 -15.7574
1 20.1254 -41.9325 15.7574
1 20.1262 41.9325 -15.7573
1 20.1262 41.9325 15.7573
1 15.7577 -20.1253 -41.9325
1 15.7577 -20.1253 41.9325
1 15.7581 20.1253 -41.9325
1 -15.757 -20.1253 -41.9325
1 -17.4295 -14.2103 49.362
1 -17.4293 14.2103 -49.362
1 -17.4293 14.2103 49.362
1 -14.2102 -49.362 -17.4299
1 -14.2102 -49.362 17.4299
1 -14.2093 49.3619 -17.43
1 -14.2093 49.3619 17.43
1 -49.3616 -17.4299 -14.2103
1 -49.3616 -17.4299 14.2103
1 -49.3612 17.43 -14.2103
1 -49.3612 17.4299 14.2103
1 49.3623 -17.43 -14.2103
1 49.3623 -17.43 14.2103
1 49.3627 17.4299 -14.2103
1 49.3627 17.4299 14.2103
1 14.2104 -49.3619 -17.43
1 14.2104 -49.3619 17.43
1 14.2113 49.362 -17.4299
1 14.2113 49.362 17.4299
1 17.4304 -14.2103 -49.362
1 17.4304 -14.2103 49.362
1 17.4306 14.2103 -49.362
1 -17.4295 -14.2103 -49.362
1 -38.622 -11.3375 29.8035
1 -38.6217 11.3375 -29.8034
1 -38.6217 11.3375 29.8034
1 -11.3372 -29.8035 -38.6224
1 -11.3372 -29.8035 38.6224
1 -11.3367 29.8035 -38.6224
1 -11.3367 29.8035 38.6224
1 -29.8033 -38.6224 -11.3375
1 -29.8033 -38.6224 11.3375
1 -29.8025 38.6224 -11.3375
1 -29.8025 38.6224 11.3375
1 29.8036 -38.6224 -11.3375
1 29.8036 -38.6224 11.3375
1 29.8044 38.6224 -11.3375
1 29.8044 38.6224 11.3375
1 11.3378 -29.8035 -38.6224
1 11.3378 -29.8035 38.6224
1 11.3383 29.8035 -38.6224
1 11.3383 29.8035 38.6224
1 38.6228 -11.3375 -29.8034
1 38.6228 -11.3375 29.8034
1 38.6231 11.3375 -29.8035
1 -38.622 -11.3375 -29.8035
1 -32.4058 -11.0811 37.2299
1 -32.4055 11.0811 -37.2299
1 -32.4055 11.0811 37.2299
1 -11.081 -37.2299 -32.4062
1 -11.081 -37.2299 32.4062
1 -11.0802 37.2299 -32.4062
1 -11.0802 37.2299 32.4062
1 -37.2297 -32.4062 -11.0811
1 -37.2297 -32.4062 11.0811
1 -37.229 32.4062 -11.0811
1 -37.229 32.4062 11.0811
1 37.2301 -32.4062 -11.0811
1 37.2301 -32.4062 11.0811
1 37.2308 32.4062 -11.0811
1 37.2308 32.4062 11.0811
1 11.0813 -37.2299 -32.4062
1 11.0813 -37.2299 32.4062
1 11.0821 37.2299 -32.4062
1 11.0821 37.2299 32.4062
1 32.4066 -11.0811 -37.2299
1 32.4066 -11.0811 37.2299
1 32.4069 11.0811 -37.2299
1 -32.4058 -11.0811 -37.2299
1 -40.1144 -5.24901 37.1564
1 -40.1142 5.24906 -37.1563
1 -40.1142 5.24906 37.1563
1 -5.24883 -37.1564 -40.1149
1 -5.24883 -37.1564 40.1149
1 -5.24814 37.1563 -40.1148
1 -5.24814 37.1563 40.1148
1 -37.1562 -40.1149 -5.24904
1 -37.1562 -40.1149 5.24904
1 -37.1554 40.1149 -5.24903
1 -37.1554 40.1149 5.24902
1 37.1565 -40.1149 -5.24902
1 37.1565 -40.1149 5.24902
1 37.1573 40.1149 -5.24904
1 37.1573 40.1149 5.24904
1 5.24923 -37.1563 -40.1148
1 5.24923 -37.1563 40.1148
1 5.24993 37.1564 -40.1149
1 5.24993 37.1564 40.1149
1 40.1153 -5.24906 -37.1563
1 40.1153 -5.24906 37.1563
1 40.1155 5.24901 -37.1564
1 -40.1144 -5.24901 -37.1564
1 -5.15579 -22.0574 52.1818
1 -5.15539 22.0574 -52.1818
1 -5.15538 22.0574 52.1818
1 -22.0574 -52.1818 -5.15611
1 -22.0574 -52.1818 5.15611
1 -22.0564 52.1817 -5.15616
1 -22.0564 52.1817 5.15616
1 -52.1813 -5.15613 -22.0574
1 -52.1813 -5.15613 22.0574
1 -52.1811 5.15613 -22.0574
1 -52.1811 5.15613 22.0574
1 52.1822 -5.15613 -22.0574
1 52.1822 -5.15613 22.0574
1 52.1824 5.15614 -22.0574
1 52.1824 5.15613 22.0574
1 22.0575 -52.1817 -5.15616
1 22.0575 -52.1817 5.15616
1 22.0585 52.1818 -5.15611
1 22.0585 52.1818 5.15611
1 5.15648 -22.0574 -52.1818
1 5.15648 -22.0574 52.1818
1 5.15688 22.0574 -52.1818
1 -5.15579 -22.0574 -52.1818
1 -13.0663 -16.4234 52.0888
1 -13.066 16.4234 -52.0888
1 -13.066 16.4234 52.0888
1 -16.4233 -52.0888 -13.0667
1 -16.4233 -52.0888 13.0667
1 -16.4223 52.0887 -13.0667
1 -16.4223 52.0887 13.0667
1 -52.0884 -13.0667 -16.4234
1 -52.0884 -13.0667 16.4234
1 -52.0881 13.0667 -16.4234
1 -52.0881 13.0667 16.4234
1 52.0892 -13.0667 -16.4234
1 52.0892 -13.0667 16.4234
1 52.0895 13.0667 -16.4234
1 52.0895 13.0667 16.4234
1 16.4234 -52.0887 -13.0667
1 16.4234 -52.0887 13.0667
1 16.4244 52.0888 -13.0667
1 16.4244 52.0888 13.0667
1 13.0671 -16.4234 -52.0888
1 13.0671 -16.4234 52.0888
1 13.0674 16.4234 -52.0888
1 -13.0663 -16.4234 -52.0888
1 -11.3944 -22.2763 44.7087
1 -11.394 22.2763 -44.7087
1 -11.394 22.2763 44.7087
1 -22.2762 -44.7087 -11.3947
1 -22.2762 -44.7087 11.3947
1 -22.2753 44.7087 -11.3947
1 -22.2753 44.7087 11.3947
1 -44.7083 -11.3947 -22.2763
1 -44.7083 -11.3947 22.2763
1 -44.708 11.3947 -22.2763
1 -44.708 11.3947 22.2763
1 44.7091 -11.3947 -22.2763
1 44.7091 -11.3947 22.2763
1 44.7094 11.3947 -22.2763
1 44.7094 11.3947 22.2763
1 22.2764 -44.7087 -11.3947
1 22.2764 -44.7087 11.3947
1 22.2773 44.7087 -11.3947
1 22.2773 44.7087 11.3947
1 11.3951 -22.2763 -44.7087
1 11.3951 -22.2763 44.7087
1 11.3955 22.2763 -44.7087
1 -11.3944 -22.2763 -44.7087
1 -21.0079 -10.9042 52.0858
1 -21.0076 10.9042 -52.0858
1 -21.0076 10.9042 52.0858
1 -10.9042 -52.0859 -21.0083
1 -10.9042 -52.0859 21.0083
1 -10.9031 52.0858 -21.0083
1 -10.9031 52.0858 21.0083
1 -52.0855 -21.0083 -10.9042
1 -52.0855 -21.0083 10.9042
1 -52.0851 21.0083 -10.9042
1 -52.0851 21.0083 10.9042
1 52.0862 -21.0083 -10.9042
1 52.0862 -21.0083 10.9042
1 52.0866 21.0083 -10.9042
1 52.0866 21.0083 10.9042
1 10.9042 -52.0858 -21.0083
1 10.9042 -52.0858 21.0083
1 10.9053 52.0859 -21.0083
1 10.9053 52.0859 21.0083
1 21.0087 -10.9042 -52.0858
1 21.0087 -10.9042 52.0858
1 21.009 10.9042 -52.0858
1 -21.0079 -10.9042 -52.0858
1 -28.6125 -4.91445 52.1717
1 -28.6124 4.91447 -52.1717
1 -28.6124 4.91447 52.1717
1 -4.91444 -52.1717 -28.613
1 -4.91445 -52.1717 28.613
1 -4.91338 52.1717 -28.613
1 -4.91338 52.1717 28.613
1 -52.1715 -28.613 -4.91444
1 -52.1715 -28.613 4.91444
1 -52.1709 28.613 -4.91448
1 -52.1709 28.613 4.91448
1 52.172 -28.613 -4.91448
1 52.172 -28.613 4.91448
1 52.1726 28.613 -4.91444
1 52.1726 28.613 4.91444
1 4.91448 -52.1717 -28.613
1 4.91448 -52.1717 28.613
1 4.91554 52.1717 -28.613
1 4.91554 52.1717 28.613
1 28.6135 -4.91447 -52.1717
1 28.6135 -4.91447 52.1717
1 28.6136 4.91445 -52.1717
1 -28.6125 -4.91445 -52.1717
1 -26.4196 -10.1592 44.1126
1 -26.4193 10.1592 -44.1126
1 -26.4193 10.1592 44.1126
1 -10.1591 -44.1126 -26.42
1 -10.1591 -44.1126 26.42
1 -10.1582 44.1126 -26.42
1 -10.1582 44.1126 26.42
1 -44.1123 -26.42 -10.1592
1 -44.1123 -26.42 10.1592
1 -44.1118 26.42 -10.1592
1 -44.1118 26.42 10.1592
1 44.1129 -26.42 -10.1592
1 44.1129 -26.42 10.1592
1 44.1134 26.42 -10.1592
1 44.1134 26.42 10.1592
1 10.1593 -44.1126 -26.42
1 10.1593 -44.1126 26.42
1 10.1602 44.1126 -26.42
1 10.1602 44.1126 26.42
1 26.4204 -10.1592 -44.1126
1 26.4204 -10.1592 44.1126
1 26.4207 10.1592 -44.1126
1 -26.4196 -10.1592 -44.1126
1 -17.5406 -22.5263 37.1939
1 -17.5402 22.5263 -37.194
1 -17.5402 22.5263 37.194
1 -22.5261 -37.194 -17.5409
1 -22.5261 -37.194 17.5409
1 -22.5254 37.1939 -17.5409
1 -22.5254 37.1939 17.5409
1 -37.1936 -17.5409 -22.5263
1 -37.1936 -17.5409 22.5263
1 -37.1932 17.5409 -22.5263
1 -37.1932 17.5409 22.5263
1 37.1943 -17.5409 -22.5263
1 37.1943 -17.5409 22.5263
1 37.1947 17.5409 -22.5263
1 37.1947 17.5409 22.5263
1 22.5265 -37.1939 -17.5409
1 22.5265 -37.1939 17.5409
1 22.5272 37.194 -17.5409
1 22.5272 37.194 17.5409
1 17.5413 -22.5263 -37.194
1 17.5413 -22.5263 37.194
1 17.5417 22.5263 -37.1939
1 -17.5406 -22.5263 -37.1939
1 -24.6681 -16.0031 36.5495
1 -24.6678 16.0031 -36.5495
1 -24.6678 16.0031 36.5495
1 -16.0029 -36.5495 -24.6685
1 -16.0029 -36.5495 24.6685
1 -16.0022 36.5495 -24.6685
1 -16.0022 36.5495 24.6685
1 -36.5492 -24.6685 -16.0031
1 -36.5492 -24.6685 16.0031
1 -36.5487 24.6685 -16.0031
1 -36.5487 24.6685 16.0031
1 36.5498 -24.6685 -16.0031
1 36.5498 -24.6685 16.0031
1 36.5503 24.6685 -16.0031
1 36.5503 24.6685 16.0031
1 16.0033 -36.5495 -24.6685
1 16.0033 -36.5495 24.6685
1 16.004 36.5495 -24.6685
1 16.004 36.5495 24.6685
1 24.6689 -16.0032 -36.5495
1 24.6689 -16.0031 36.5495
1 24.6692 16.0031 -36.5495
1 -24.6681 -16.0031 -36.5495
1 -23.5138 -22.6923 29.5196
1 -23.5133 22.6923 -29.5196
1 -23.5133 22.6923 29.5196
1 -22.692 -29.5196 -23.514
1 -22.692 -29.5196 23.514
1 -22.6915 29.5196 -23.5141
1 -22.6915 29.5196 23.5141
1 -29.5193 -23.5141 -22.6923
1 -29.5193 -23.5141 22.6923
1 -29.5188 23.5141 -22.6923
1 -29.5188 23.5141 22.6923
1 29.5199 -23.5141 -22.6923
1 29.5199 -23.5141 22.6923
1 29.5204 23.5141 -22.6923
1 29.5204 23.5141 22.6923
1 22.6926 -29.5196 -23.5141
1 22.6926 -29.5196 23.5141
1 22.6931 29.5196 -23.514
1 22.6931 29.5196 23.514
1 23.5144 -22.6923 -29.5196
1 23.5144 -22.6923 29.5196
1 23.5148 22.6923 -29.5196
1 -23.5138 -22.6923 -29.5196
1 -32.4488 -2.76637 49.6267
1 -32.4487 2.76642 -49.6266
1 -32.4487 2.76642 49.6266
1 -2.76633 -49.6266 -32.4493
1 -2.76633 -49.6266 32.4493
1 -2.76536 49.6267 -32.4493
1 -2.76536 49.6267 32.4493
1 -49.6264 -32.4493 -2.76639
1 -49.6264 -32.4493 2.76639
1 -49.6258 32.4493 -2.7664
1 -49.6258 32.4493 2.7664
1 49.6269 -32.4493 -2.7664
1 49.6269 -32.4493 2.7664
1 49.6275 32.4493 -2.76639
1 49.6275 32.4493 2.76639
1 2.76646 -49.6267 -32.4493
1 2.76646 -49.6267 32.4493
1 2.76743 49.6266 -32.4493
1 2.76743 49.6266 32.4493
1 32.4498 -2.76642 -49.6266
1 32.4498 -2.76642 49.6266
1 32.4499 2.76637 -49.6267
1 -32.4488 -2.76637 -49.6267
1 -38.1358 -2.73851 41.7454
1 -38.1357 2.73859 -41.7454
1 -38.1357 2.73859 41.7454
1 -2.73839 -41.7454 -38.1363
1 -2.73839 -41.7454 38.1363
1 -2.73762 41.7454 -38.1363
1 -2.73762 41.7454 38.1363
1 -41.7452 -38.1363 -2.73856
1 -41.7452 -38.1363 2.73856
1 -41.7445 38.1363 -2.73855
1 -41.7445 38.1363 2.73855
1 41.7456 -38.1363 -2.73855
1 41.7456 -38.1363 2.73855
1 41.7463 38.1363 -2.73856
1 41.7463 38.1363 2.73856
1 2.73871 -41.7454 -38.1363
1 2.73871 -41.7454 38.1363
1 2.73949 41.7454 -38.1363
1 2.73949 41.7454 38.1363
1 38.1368 -2.73859 -41.7454
1 38.1368 -2.73859 41.7454
1 38.1369 2.73851 -41.7454
1 -38.1358 -2.73851 -41.7454
1 -30.6687 -8.65079 41.9388
1 -30.6685 8.65081 -41.9388
1 -30.6685 8.65081 41.9388
1 -8.65066 -41.9388 -30.6691
1 -8.65066 -41.9388 30.6691
1 -8.64984 41.9388 -30.6691
1 -8.64984 41.9388 30.6691
1 -41.9386 -30.6691 -8.6508
1 -41.9386 -30.6691 8.6508
1 -41.9379 30.6691 -8.6508
1 -41.9379 30.6691 8.6508
1 41.939 -30.6691 -8.6508
1 41.939 -30.6691 8.6508
1 41.9397 30.6691 -8.6508
1 41.9397 30.6691 8.6508
1 8.65094 -41.9388 -30.6691
1 8.65094 -41.9388 30.6691
1 8.65176 41.9388 -30.6691
1 8.65175 41.9388 30.6691
1 30.6696 -8.65081 -41.9388
1 30.6696 -8.65081 41.9388
1 30.6698 8.65078 -41.9388
1 -30.6687 -8.65078 -41.9388
1 -44.094 -2.74819 34.1344
1 -44.0939 2.74827 -34.1343
1 -44.0939 2.74827 34.1343
1 -2.74798 -34.1344 -44.0945
1 -2.74799 -34.1344 44.0945
1 -2.74738 34.1343 -44.0945
1 -2.74738 34.1343 44.0945
1 -34.1342 -44.0945 -2.74824
1 -34.1342 -44.0945 2.74824
1 -34.1334 44.0945 -2.74823
1 -34.1334 44.0945 2.74823
1 34.1345 -44.0945 -2.74823
1 34.1345 -44.0945 2.74823
1 34.1353 44.0945 -2.74824
1 34.1353 44.0945 2.74824
1 2.74848 -34.1343 -44.0945
1 2.74848 -34.1343 44.0945
1 2.74908 34.1344 -44.0945
1 2.74908 34.1344 44.0945
1 44.095 -2.74827 -34.1343
1 44.095 -2.74827 34.1343
1 44.0951 2.74819 -34.1344
1 -44.094 -2.74819 -34.1344
1 -50.1732 -2.66412 26.5858
1 -50.1731 2.66414 -26.5858
1 -50.1731 2.66414 26.5858
1 -2.66382 -26.5858 -50.1737
1 -2.66382 -26.5858 50.1737
1 -2.66334 26.5858 -50.1737
1 -2.66334 26.5858 50.1737
1 -26.5857 -50.1737 -2.66412
1 -26.5857 -50.1737 2.66412
1 -26.5848 50.1737 -2.66413
1 -26.5848 50.1737 2.66413
1 26.5859 -50.1737 -2.66413