768
Atoms. Timestep: 31778
1 5.27545 4.18517 11.1816
1 9.35325 2.5152 8.57773
1 2.91764 5.1201 12.5614
1 6.93105 2.39785 12.6813
1 5.35765 4.73798 8.16136
1 9.09364 1.33397 11.2112
1 11.3388 1.33117 6.91764
1 7.29406 4.01735 6.97658
1 6.49441 3.72898 10.6553
1 4.35685 5.00188 10.483
1 4.98577 3.86133 12.5433
1 9.539 2.96788 7.25069
1 8.42143 3.00868 9.49098
1 10.0754 1.36795 8.99089
1 1.71194 5.53564 13.2458
1 3.9083 4.41827 13.2599
1 3.25033 5.50116 11.2316
1 5.85065 3.03241 13.2723
1 7.78764 1.44459 13.2678
1 7.28381 2.88346 11.4693
1 4.50274 5.38133 9.10475
1 7.21012 3.76071 9.41656
1 5.16061 4.9253 6.75221
1 8.6246 0.701421 12.3879
1 9.81684 0.697292 10.2043
1 8.4287 2.46513 10.7989
1 10.845 0.689906 8.04478
1 6.65714 4.13768 8.25472
1 -5.27517 -4.18517 11.1816
1 -5.27508 4.18517 -11.1816
1 -5.27508 4.18517 11.1816
1 -4.18512 -11.1816 -5.27525
1 -4.18512 -11.1816 5.27525
1 -4.18494 11.1816 -5.27528
1 -4.18494 11.1816 5.27528
1 -11.1815 -5.27526 -4.18518
1 -11.1815 -5.27526 4.18518
1 -11.1814 5.27526 -4.18516
1 -11.1814 5.27526 4.18516
1 11.1816 -5.27526 -4.18516
1 11.1816 -5.27526 4.18516
1 11.1818 5.27526 -4.18518
1 11.1818 5.27526 4.18518
1 4.18522 -11.1816 -5.27528
1 4.18522 -11.1816 5.27528
1 4.1854 11.1816 -5.27525
1 4.1854 11.1816 5.27525
1 5.27536 -4.18517 -11.1816
1 5.27536 -4.18517 11.1816
1 5.27545 4.18517 -11.1816
1 -5.27517 -4.18517 -11.1816
1 -9.35298 -2.5152 8.57773
1 -9.35285 2.51516 -8.57767
1 -9.35285 2.51516 8.57767
1 -2.5151 -8.57768 -9.35303
1 -2.5151 -8.57768 9.35303
1 -2.51498 8.57772 -9.35307
1 -2.51498 8.57772 9.35307
1 -8.57764 -9.35303 -2.51518
1 -8.57764 -9.35303 2.51518
1 -8.57748 9.35307 -2.51519
1 -8.57748 9.35307 2.51519
1 8.57776 -9.35307 -2.51519
1 8.57776 -9.35307 2.51519
1 8.57791 9.35303 -2.51518
1 8.57791 9.35303 2.51518
1 2.51526 -8.57772 -9.35307
1 2.51526 -8.57772 9.35307
1 2.51538 8.57768 -9.35303
1 2.51538 8.57768 9.35303
1 9.35313 -2.51516 -8.57767
1 9.35313 -2.51516 8.57767
1 9.35325 2.5152 -8.57773
1 -9.35298 -2.5152 -8.57773
1 -2.91736 -5.1201 12.5614
1 -2.91728 5.12011 -12.5614
1 -2.91728 5.12011 12.5614
1 -5.12007 -12.5614 -2.91745
1 -5.12007 -12.5614 2.91745
1 -5.11986 12.5614 -2.91747
1 -5.11986 12.5614 2.91747
1 -12.5613 -2.91746 -5.12011
1 -12.5613 -2.91746 5.12011
1 -12.5612 2.91745 -5.12009
1 -12.5612 2.91745 5.12009
1 12.5615 -2.91745 -5.12009
1 12.5615 -2.91745 5.12009
1 12.5616 2.91747 -5.12011
1 12.5616 2.91747 5.12011
1 5.12014 -12.5614 -2.91747
1 5.12014 -12.5614 2.91747
1 5.12035 12.5614 -2.91745
1 5.12035 12.5614 2.91745
1 2.91756 -5.1201 -12.5614
1 2.91756 -5.1201 12.5614
1 2.91764 5.1201 -12.5614
1 -2.91736 -5.1201 -12.5614
1 -6.93077 -2.39785 12.6813
1 -6.93072 2.39787 -12.6812
1 -6.93072 2.39787 12.6812
1 -2.39783 -12.6812 -6.93088
1 -2.39783 -12.6812 6.93088
1 -2.39762 12.6813 -6.9309
1 -2.39762 12.6813 6.9309
1 -12.6812 -6.93089 -2.39786
1 -12.6812 -6.93089 2.39786
1 -12.681 6.93089 -2.39786
1 -12.681 6.93089 2.39786
1 12.6813 -6.93089 -2.39786
1 12.6813 -6.93089 2.39786
1 12.6815 6.93089 -2.39786
1 12.6815 6.93089 2.39786
1 2.39789 -12.6813 -6.9309
1 2.39789 -12.6813 6.9309
1 2.39811 12.6812 -6.93088
1 2.39811 12.6812 6.93088
1 6.931 -2.39787 -12.6812
1 6.931 -2.39787 12.6812
1 6.93105 2.39785 -12.6812
1 -6.93077 -2.39785 -12.6812
1 -5.35737 -4.73798 8.16136
1 -5.35725 4.738 -8.16136
1 -5.35725 4.738 8.16136
1 -4.73791 -8.16133 -5.35743
1 -4.73791 -8.16133 5.35743
1 -4.73778 8.16139 -5.35747
1 -4.73778 8.16139 5.35747
1 -8.1613 -5.35745 -4.73799
1 -8.1613 -5.35745 4.73799
1 -8.16115 5.35746 -4.73798
1 -8.16115 5.35746 4.73798
1 8.16143 -5.35746 -4.73798
1 8.16143 -5.35746 4.73798
1 8.16158 5.35745 -4.73799
1 8.16158 5.35745 4.73799
1 4.73806 -8.16139 -5.35747
1 4.73806 -8.16139 5.35747
1 4.73819 8.16134 -5.35743
1 4.73819 8.16134 5.35743
1 5.35753 -4.738 -8.16136
1 5.35753 -4.738 8.16136
1 5.35765 4.73798 -8.16136
1 -5.35737 -4.73798 -8.16136
1 -9.09336 -1.33397 11.2112
1 -9.09331 1.33399 -11.2112
1 -9.09331 1.33399 11.2112
1 -1.33393 -11.2112 -9.09347
1 -1.33393 -11.2112 9.09347
1 -1.33374 11.2112 -9.09348
1 -1.33374 11.2112 9.09348
1 -11.2112 -9.09347 -1.33398
1 -11.2112 -9.09347 1.33398
1 -11.211 9.09348 -1.33398
1 -11.211 9.09348 1.33398
1 11.2113 -9.09348 -1.33398
1 11.2113 -9.09348 1.33398
1 11.2114 9.09347 -1.33398
1 11.2114 9.09347 1.33398
1 1.33402 -11.2112 -9.09348
1 1.33402 -11.2112 9.09348
1 1.33421 11.2112 -9.09347
1 1.33421 11.2112 9.09347
1 9.09359 -1.33398 -11.2112
1 9.09359 -1.33398 11.2112
1 9.09364 1.33397 -11.2112
1 -9.09336 -1.33397 -11.2112
1 -11.3385 -1.33117 6.91764
1 -11.3384 1.33113 -6.91758
1 -11.3384 1.33113 6.91758
1 -1.33106 -6.9176 -11.3386
1 -1.33106 -6.9176 11.3386
1 -1.33096 6.91762 -11.3386
1 -1.33096 6.91762 11.3386
1 -6.91756 -11.3386 -1.33115
1 -6.91756 -11.3386 1.33115
1 -6.91738 11.3386 -1.33115
1 -6.91738 11.3386 1.33115
1 6.91766 -11.3386 -1.33115
1 6.91766 -11.3386 1.33115
1 6.91784 11.3386 -1.33115
1 6.91784 11.3386 1.33115
1 1.33124 -6.91762 -11.3386
1 1.33124 -6.91762 11.3386
1 1.33134 6.9176 -11.3386
1 1.33134 6.9176 11.3386
1 11.3387 -1.33113 -6.91758
1 11.3387 -1.33113 6.91758
1 11.3388 1.33117 -6.91764
1 -11.3385 -1.33117 -6.91764
1 -7.29378 -4.01735 6.97658
1 -7.29363 4.01733 -6.97654
1 -7.29363 4.01733 6.97654
1 -4.01726 -6.97653 -7.29382
1 -4.01726 -6.97653 7.29382
1 -4.01715 6.97659 -7.29386
1 -4.01715 6.97659 7.29386
1 -6.97649 -7.29382 -4.01733
1 -6.97649 -7.29382 4.01733
1 -6.97635 7.29387 -4.01735
1 -6.97635 7.29387 4.01735
1 6.97663 -7.29386 -4.01735
1 6.97663 -7.29386 4.01735
1 6.97677 7.29382 -4.01733
1 6.97677 7.29382 4.01733
1 4.01743 -6.97659 -7.29386
1 4.01743 -6.97659 7.29386
1 4.01754 6.97654 -7.29382
1 4.01754 6.97654 7.29382
1 7.29391 -4.01733 -6.97654
1 7.29391 -4.01733 6.97654
1 7.29406 4.01735 -6.97658
1 -7.29378 -4.01735 -6.97658
1 -6.49413 -3.72898 10.6553
1 -6.49403 3.72897 -10.6553
1 -6.49403 3.72897 10.6553
1 -3.72892 -10.6553 -6.4942
1 -3.72892 -10.6553 6.4942
1 -3.72876 10.6553 -6.49424
1 -3.72876 10.6553 6.49424
1 -10.6552 -6.49422 -3.72898
1 -10.6552 -6.49422 3.72898
1 -10.6551 6.49423 -3.72897
1 -10.6551 6.49423 3.72898
1 10.6554 -6.49423 -3.72897
1 10.6554 -6.49423 3.72898
1 10.6555 6.49422 -3.72898
1 10.6555 6.49422 3.72898
1 3.72904 -10.6553 -6.49424
1 3.72904 -10.6553 6.49424
1 3.7292 10.6553 -6.4942
1 3.7292 10.6553 6.4942
1 6.49431 -3.72897 -10.6553
1 6.49431 -3.72897 10.6553
1 6.49441 3.72898 -10.6553
1 -6.49413 -3.72898 -10.6553
1 -4.35657 -5.00188 10.483
1 -4.35648 5.0019 -10.483
1 -4.35648 5.0019 10.483
1 -5.00183 -10.483 -4.35664
1 -5.00183 -10.483 4.35664
1 -5.00167 10.4831 -4.35668
1 -5.00167 10.4831 4.35668
1 -10.483 -4.35667 -5.0019
1 -10.483 -4.35667 5.0019
1 -10.4828 4.35665 -5.00187
1 -10.4828 4.35665 5.00187
1 10.4831 -4.35665 -5.00187
1 10.4831 -4.35665 5.00187
1 10.4833 4.35667 -5.0019
1 10.4833 4.35667 5.0019
1 5.00195 -10.4831 -4.35668
1 5.00195 -10.4831 4.35668
1 5.00211 10.483 -4.35664
1 5.00211 10.483 4.35664
1 4.35676 -5.0019 -10.483
1 4.35676 -5.0019 10.483
1 4.35685 5.00188 -10.483
1 -4.35657 -5.00188 -10.483
1 -4.98549 -3.86133 12.5433
1 -4.98542 3.86134 -12.5433
1 -4.98542 3.86134 12.5433
1 -3.86131 -12.5433 -4.98558
1 -3.86131 -12.5433 4.98558
1 -3.86108 12.5433 -4.9856
1 -3.86108 12.5433 4.9856
1 -12.5432 -4.98559 -3.86134
1 -12.5432 -4.98559 3.86134
1 -12.5431 4.98559 -3.86133
1 -12.5431 4.98559 3.86133
1 12.5434 -4.98559 -3.86133
1 12.5434 -4.98559 3.86133
1 12.5435 4.9856 -3.86134
1 12.5435 4.9856 3.86134
1 3.86136 -12.5433 -4.9856
1 3.86136 -12.5433 4.9856
1 3.86159 12.5433 -4.98558
1 3.86159 12.5433 4.98558
1 4.9857 -3.86134 -12.5433
1 4.9857 -3.86134 12.5433
1 4.98577 3.86133 -12.5433
1 -4.98549 -3.86133 -12.5433
1 -9.53872 -2.96788 7.25069
1 -9.53857 2.96782 -7.25062
1 -9.53857 2.96782 7.25062
1 -2.96776 -7.25063 -9.53877
1 -2.96776 -7.25063 9.53877
1 -2.96766 7.25068 -9.5388
1 -2.96766 7.25068 9.5388
1 -7.25059 -9.53876 -2.96784
1 -7.25059 -9.53876 2.96784
1 -7.25044 9.53881 -2.96786
1 -7.25044 9.53881 2.96786
1 7.25072 -9.53881 -2.96786
1 7.25072 -9.53881 2.96786
1 7.25087 9.53876 -2.96784
1 7.25087 9.53876 2.96784
1 2.96794 -7.25068 -9.5388
1 2.96794 -7.25068 9.5388
1 2.96804 7.25064 -9.53877
1 2.96804 7.25064 9.53877
1 9.53885 -2.96782 -7.25062
1 9.53885 -2.96782 7.25062
1 9.539 2.96788 -7.25069
1 -9.53872 -2.96788 -7.25069
1 -8.42115 -3.00868 9.49098
1 -8.42102 3.00864 -9.49093
1 -8.42102 3.00864 9.49093
1 -3.00859 -9.49093 -8.4212
1 -3.00859 -9.49093 8.4212
1 -3.00846 9.49098 -8.42124
1 -3.00846 9.49098 8.42124
1 -9.49089 -8.42121 -3.00866
1 -9.49089 -8.42121 3.00866
1 -9.49074 8.42124 -3.00866
1 -9.49074 8.42124 3.00867
1 9.49102 -8.42123 -3.00866
1 9.49102 -8.42123 3.00867
1 9.49117 8.42121 -3.00866
1 9.49117 8.42121 3.00866
1 3.00874 -9.49098 -8.42124
1 3.00874 -9.49098 8.42124
1 3.00887 9.49093 -8.4212
1 3.00887 9.49093 8.4212
1 8.4213 -3.00864 -9.49093
1 8.4213 -3.00864 9.49093
1 8.42143 3.00868 -9.49098
1 -8.42115 -3.00868 -9.49098
1 -10.0751 -1.36795 8.99089
1 -10.075 1.36793 -8.99084
1 -10.075 1.36793 8.99084
1 -1.36787 -8.99086 -10.0752
1 -1.36787 -8.99086 10.0752
1 -1.36773 8.99088 -10.0752
1 -1.36773 8.99088 10.0752
1 -8.99081 -10.0752 -1.36794
1 -8.99081 -10.0752 1.36794
1 -8.99065 10.0752 -1.36794
1 -8.99065 10.0752 1.36794
1 8.99093 -10.0752 -1.36794
1 8.99093 -10.0752 1.36794
1 8.99109 10.0752 -1.36794
1 8.99109 10.0752 1.36794
1 1.36801 -8.99088 -10.0752
1 1.36801 -8.99088 10.0752
1 1.36815 8.99086 -10.0752
1 1.36815 8.99086 10.0752
1 10.0753 -1.36793 -8.99084
1 10.0753 -1.36793 8.99084
1 10.0754 1.36795 -8.99089
1 -10.0751 -1.36795 -8.99089
1 -1.71166 -5.53564 13.2458
1 -1.71157 5.53564 -13.2458
1 -1.71157 5.53564 13.2458
1 -5.53562 -13.2458 -1.71175
1 -5.53562 -13.2458 1.71175
1 -5.53538 13.2459 -1.71176
1 -5.53538 13.2459 1.71176
1 -13.2458 -1.71176 -5.53565
1 -13.2458 -1.71176 5.53565
1 -13.2457 1.71176 -5.53563
1 -13.2457 1.71176 5.53563
1 13.2459 -1.71176 -5.53563
1 13.2459 -1.71176 5.53563
1 13.246 1.71176 -5.53565
1 13.246 1.71176 5.53565
1 5.53566 -13.2459 -1.71176
1 5.53566 -13.2459 1.71176
1 5.5359 13.2458 -1.71175
1 5.5359 13.2458 1.71175
1 1.71185 -5.53564 -13.2458
1 1.71185 -5.53564 13.2458
1 1.71194 5.53564 -13.2458
1 -1.71166 -5.53564 -13.2458
1 -3.90802 -4.41827 13.2599
1 -3.90794 4.41827 -13.2599
1 -3.90794 4.41827 13.2599
1 -4.41825 -13.2599 -3.90812
1 -4.41825 -13.2599 3.90812
1 -4.41801 13.2599 -3.90812
1 -4.41801 13.2599 3.90812
1 -13.2598 -3.90812 -4.41827
1 -13.2598 -3.90812 4.41827
1 -13.2597 3.90812 -4.41826
1 -13.2597 3.90812 4.41826
1 13.2599 -3.90812 -4.41826
1 13.2599 -3.90812 4.41826
1 13.2601 3.90812 -4.41827
1 13.2601 3.90812 4.41827
1 4.41829 -13.2599 -3.90812
1 4.41829 -13.2599 3.90812
1 4.41853 13.2599 -3.90812
1 4.41853 13.2599 3.90812
1 3.90822 -4.41827 -13.2599
1 3.90822 -4.41827 13.2599
1 3.9083 4.41827 -13.2599
1 -3.90802 -4.41827 -13.2599
1 -3.25005 -5.50116 11.2316
1 -3.24996 5.50119 -11.2316
1 -3.24996 5.50119 11.2316
1 -5.50112 -11.2316 -3.25013
1 -5.50112 -11.2316 3.25013
1 -5.50095 11.2316 -3.25016
1 -5.50095 11.2316 3.25016
1 -11.2316 -3.25016 -5.5012
1 -11.2316 -3.25016 5.5012
1 -11.2314 3.25013 -5.50115
1 -11.2314 3.25013 5.50115
1 11.2317 -3.25013 -5.50115
1 11.2317 -3.25013 5.50115
1 11.2318 3.25016 -5.5012
1 11.2318 3.25016 5.5012
1 5.50123 -11.2316 -3.25016
1 5.50123 -11.2316 3.25016
1 5.5014 11.2316 -3.25013
1 5.5014 11.2316 3.25013
1 3.25024 -5.50119 -11.2316
1 3.25024 -5.50119 11.2316
1 3.25033 5.50116 -11.2316
1 -3.25005 -5.50116 -11.2316
1 -5.85037 -3.03241 13.2723
1 -5.85032 3.03243 -13.2723
1 -5.85032 3.03243 13.2723
1 -3.0324 -13.2723 -5.85048
1 -3.0324 -13.2723 5.85048
1 -3.03216 13.2723 -5.85049
1 -3.03216 13.2723 5.85049
1 -13.2723 -5.85048 -3.03242
1 -13.2723 -5.85048 3.03242
1 -13.2721 5.85048 -3.03242
1 -13.2721 5.85048 3.03242
1 13.2724 -5.85048 -3.03242
1 13.2724 -5.85048 3.03242
1 13.2726 5.85048 -3.03242
1 13.2726 5.85048 3.03242
1 3.03244 -13.2723 -5.85049
1 3.03244 -13.2723 5.85049
1 3.03268 13.2723 -5.85048
1 3.03268 13.2723 5.85048
1 5.8506 -3.03243 -13.2723
1 5.8506 -3.03243 13.2723
1 5.85065 3.03241 -13.2723
1 -5.85037 -3.03241 -13.2723
1 -7.78736 -1.44459 13.2678
1 -7.78734 1.44463 -13.2678
1 -7.78734 1.44463 13.2678
1 -1.44459 -13.2678 -7.78749
1 -1.44459 -13.2678 7.78749
1 -1.44435 13.2678 -7.78749
1 -1.44435 13.2678 7.78749
1 -13.2677 -7.78749 -1.44461
1 -13.2677 -7.78749 1.44461
1 -13.2676 7.78749 -1.44461
1 -13.2676 7.78749 1.44461
1 13.2678 -7.78749 -1.44461
1 13.2678 -7.78749 1.44461
1 13.268 7.78749 -1.44461
1 13.268 7.78749 1.44461
1 1.44463 -13.2678 -7.78749
1 1.44463 -13.2678 7.78749
1 1.44487 13.2678 -7.78749
1 1.44487 13.2678 7.78749
1 7.78762 -1.44463 -13.2678
1 7.78762 -1.44463 13.2678
1 7.78764 1.44459 -13.2678
1 -7.78736 -1.44459 -13.2678
1 -7.28353 -2.88346 11.4693
1 -7.28345 2.88346 -11.4693
1 -7.28345 2.88346 11.4693
1 -2.88341 -11.4693 -7.28361
1 -2.88341 -11.4693 7.28361
1 -2.88323 11.4693 -7.28364
1 -2.88323 11.4693 7.28364
1 -11.4692 -7.28362 -2.88346
1 -11.4692 -7.28362 2.88346
1 -11.4691 7.28363 -2.88345
1 -11.4691 7.28363 2.88346
1 11.4693 -7.28363 -2.88345
1 11.4693 -7.28363 2.88346
1 11.4695 7.28362 -2.88346
1 11.4695 7.28362 2.88346
1 2.88351 -11.4693 -7.28364
1 2.88351 -11.4693 7.28364
1 2.88369 11.4693 -7.28361
1 2.88369 11.4693 7.28361
1 7.28373 -2.88345 -11.4693
1 7.28373 -2.88345 11.4693
1 7.28381 2.88346 -11.4693
1 -7.28353 -2.88346 -11.4693
1 -4.50246 -5.38133 9.10475
1 -4.50236 5.38136 -9.10476
1 -4.50236 5.38136 9.10476
1 -5.38127 -9.10473 -4.50253
1 -5.38127 -9.10473 4.50253
1 -5.38114 9.10478 -4.50257
1 -5.38114 9.10478 4.50257
1 -9.10469 -4.50256 -5.38136
1 -9.10469 -4.50256 5.38136
1 -9.10454 4.50254 -5.38133
1 -9.10454 4.50254 5.38133
1 9.10482 -4.50254 -5.38133
1 9.10482 -4.50254 5.38133
1 9.10497 4.50256 -5.38136
1 9.10497 4.50256 5.38136
1 5.38141 -9.10478 -4.50257
1 5.38141 -9.10478 4.50257
1 5.38155 9.10473 -4.50253
1 5.38155 9.10473 4.50253
1 4.50264 -5.38136 -9.10476
1 4.50264 -5.38136 9.10476
1 4.50274 5.38133 -9.10475
1 -4.50246 -5.38133 -9.10475
1 -7.20984 -3.76071 9.41656
1 -7.20971 3.76067 -9.41652
1 -7.20971 3.76067 9.41652
1 -3.76061 -9.41651 -7.20989
1 -3.76061 -9.41651 7.20989
1 -3.76048 9.41657 -7.20994
1 -3.76048 9.41657 7.20994
1 -9.41648 -7.2099 -3.76069
1 -9.41648 -7.2099 3.76069
1 -9.41633 7.20992 -3.76069
1 -9.41633 7.20992 3.76069
1 9.41661 -7.20992 -3.76069
1 9.41661 -7.20992 3.76069
1 9.41676 7.2099 -3.76069
1 9.41676 7.2099 3.76069
1 3.76076 -9.41657 -7.20994
1 3.76076 -9.41657 7.20994
1 3.76089 9.41652 -7.20989
1 3.76089 9.41652 7.20989
1 7.20999 -3.76067 -9.41652
1 7.20999 -3.76067 9.41652
1 7.21012 3.76071 -9.41656
1 -7.20984 -3.76071 -9.41656
1 -5.16033 -4.9253 6.75221
1 -5.1602 4.92534 -6.75222
1 -5.1602 4.92534 6.75222
1 -4.92525 -6.75219 -5.16039
1 -4.92525 -6.75219 5.16039
1 -4.92511 6.75224 -5.16042
1 -4.92511 6.75224 5.16042
1 -6.75215 -5.16039 -4.92532
1 -6.75215 -5.16039 4.92532
1 -6.752 5.16042 -4.92532
1 -6.752 5.16042 4.92532
1 6.75228 -5.16042 -4.92532
1 6.75228 -5.16042 4.92532
1 6.75243 5.16039 -4.92532
1 6.75243 5.16039 4.92532
1 4.92539 -6.75224 -5.16042
1 4.92539 -6.75224 5.16042
1 4.92553 6.75219 -5.16039
1 4.92553 6.75219 5.16039
1 5.16048 -4.92534 -6.75222
1 5.16048 -4.92534 6.75222
1 5.16061 4.9253 -6.75221
1 -5.16033 -4.9253 -6.75221
1 -8.62432 -0.70142 12.3879
1 -8.62429 0.701454 -12.3879
1 -8.62429 0.701454 12.3879
1 -0.701404 -12.3879 -8.62444
1 -0.701404 -12.3879 8.62444
1 -0.70119 12.3879 -8.62445
1 -0.70119 12.3879 8.62445
1 -12.3879 -8.62444 -0.701437
1 -12.3879 -8.62444 0.701437
1 -12.3877 8.62445 -0.701437
1 -12.3877 8.62445 0.701437
1 12.388 -8.62445 -0.701437
1 12.388 -8.62445 0.701437
1 12.3881 8.62444 -0.701437
1 12.3881 8.62444 0.701437
1 0.70147 -12.3879 -8.62445
1 0.70147 -12.3879 8.62445
1 0.701684 12.3879 -8.62444
1 0.701684 12.3879 8.62444
1 8.62457 -0.701453 -12.3879
1 8.62457 -0.701453 12.3879
1 8.6246 0.701421 -12.3879
1 -8.62432 -0.70142 -12.3879
1 -9.81656 -0.697291 10.2043
1 -9.81652 0.697309 -10.2043
1 -9.81652 0.697309 10.2043
1 -0.697245 -10.2043 -9.81668
1 -0.697245 -10.2043 9.81668
1 -0.697076 10.2043 -9.81668
1 -0.697076 10.2043 9.81669
1 -10.2042 -9.81667 -0.6973
1 -10.2042 -9.81667 0.6973
1 -10.2041 9.81669 -0.6973
1 -10.2041 9.81669 0.697301
1 10.2043 -9.81669 -0.6973
1 10.2043 -9.81669 0.697301
1 10.2045 9.81667 -0.6973
1 10.2045 9.81667 0.6973
1 0.697356 -10.2043 -9.81668
1 0.697356 -10.2043 9.81669
1 0.697524 10.2043 -9.81668
1 0.697524 10.2043 9.81668
1 9.8168 -0.697308 -10.2043
1 9.8168 -0.697308 10.2043
1 9.81684 0.697292 -10.2043
1 -9.81656 -0.697291 -10.2043
1 -8.42842 -2.46513 10.7989
1 -8.42833 2.46512 -10.7988
1 -8.42833 2.46512 10.7988
1 -2.46507 -10.7988 -8.4285
1 -2.46507 -10.7988 8.4285
1 -2.4649 10.7989 -8.42853
1 -2.4649 10.7989 8.42853
1 -10.7988 -8.42851 -2.46512
1 -10.7988 -8.42851 2.46513
1 -10.7986 8.42852 -2.46512
1 -10.7986 8.42852 2.46512
1 10.7989 -8.42852 -2.46512
1 10.7989 -8.42852 2.46512
1 10.7991 8.42851 -2.46512
1 10.7991 8.42851 2.46513
1 2.46518 -10.7989 -8.42853
1 2.46518 -10.7989 8.42853
1 2.46535 10.7988 -8.4285
1 2.46535 10.7988 8.4285
1 8.42861 -2.46512 -10.7988
1 8.42861 -2.46512 10.7988
1 8.4287 2.46513 -10.7989
1 -8.42842 -2.46513 -10.7989
1 -10.8447 -0.689905 8.04478
1 -10.8446 0.689893 -8.04475
1 -10.8446 0.689893 8.04475
1 -0.689819 -8.04476 -10.8448
1 -0.689819 -8.04476 10.8448
1 -0.6897 8.04477 -10.8448
1 -0.6897 8.04477 10.8448
1 -8.04472 -10.8448 -0.689898
1 -8.04472 -10.8448 0.689898
1 -8.04454 10.8448 -0.6899
1 -8.04454 10.8448 0.6899
1 8.04482 -10.8448 -0.6899
1 8.04482 -10.8448 0.6899
1 8.045 10.8448 -0.689898
1 8.045 10.8448 0.689898
1 0.689979 -8.04477 -10.8448
1 0.689979 -8.04477 10.8448
1 0.690099 8.04476 -10.8448
1 0.690099 8.04476 10.8448
1 10.8449 -0.689892 -8.04475
1 10.8449 -0.689892 8.04475
1 10.845 0.689906 -8.04478
1 -10.8447 -0.689905 -8.04478
1 12.414 0.722552 6.17626
1 -12.4137 -0.722551 6.17626
1 -12.4137 0.722543 -6.17624
1 -12.4137 0.722543 6.17624
1 -0.722455 -6.17625 -12.4138
1 -0.722455 -6.17625 12.4138
1 -0.72236 6.17625 -12.4138
1 -0.72236 6.17625 12.4138
1 -6.17621 -12.4138 -0.722545
1 -6.17621 -12.4138 0.722545
1 -6.17601 12.4139 -0.72255
1 -6.17601 12.4139 0.72255
1 6.17629 -12.4139 -0.72255
1 6.17629 -12.4139 0.72255
1 6.17649 12.4138 -0.722545
1 6.17649 12.4138 0.722545
1 0.72264 -6.17625 -12.4138
1 0.72264 -6.17625 12.4138
1 0.722735 6.17625 -12.4138
1 0.722735 6.17625 12.4138
1 12.414 -0.722543 -6.17624
1 12.414 -0.722543 6.17624
1 12.414 0.722552 -6.17626
1 -12.4137 -0.722551 -6.17626
1 10.6925 2.51688 6.55562
1 -10.6922 -2.51688 6.55562
1 -10.6921 2.51682 -6.55555
1 -10.6921 2.51682 6.55555
1 -2.51675 -6.55557 -10.6923
1 -2.51675 -6.55557 10.6923
1 -2.51667 6.55561 -10.6923
1 -2.51667 6.55561 10.6923
1 -6.55553 -10.6923 -2.51684
1 -6.55553 -10.6923 2.51684
1 -6.55537 10.6923 -2.51686
1 -6.55537 10.6923 2.51686
1 6.55565 -10.6923 -2.51686
1 6.55565 -10.6923 2.51686
1 6.55581 10.6923 -2.51684
1 6.55581 10.6923 2.51684
1 2.51694 -6.55561 -10.6923
1 2.51694 -6.55561 10.6923
1 2.51703 6.55557 -10.6923
1 2.51703 6.55557 10.6923
1 10.6924 -2.51682 -6.55555
1 10.6924 -2.51682 6.55555
1 10.6925 2.51688 -6.55562
1 -10.6922 -2.51688 -6.55562
1 -6.65687 -4.13768 8.25472
1 -6.65673 4.13767 -8.25469
1 -6.65673 4.13767 8.25469
1 -4.13759 -8.25468 -6.65692
1 -4.13759 -8.25468 6.65692
1 -4.13747 8.25473 -6.65696
1 -4.13747 8.25473 6.65696
1 -8.25464 -6.65692 -4.13767
1 -8.25464 -6.65692 4.13767
1 -8.25449 6.65695 -4.13768
1 -8.25449 6.65695 4.13768
1 8.25477 -6.65695 -4.13768
1 8.25477 -6.65695 4.13768
1 8.25492 6.65693 -4.13767
1 8.25492 6.65693 4.13767
1 4.13775 -8.25473 -6.65696
1 4.13775 -8.25473 6.65696
1 4.13787 8.25468 -6.65692
1 4.13787 8.25468 6.65692
1 6.65701 -4.13767 -8.25469
1 6.65701 -4.13767 8.25469
1 6.65714 4.13768 -8.25472
1 -6.65687 -4.13768 -8.25472
1 8.63576 3.80716 6.55467
1 -8.63548 -3.80716 6.55467
1 -8.63532 3.80712 -6.55463
1 -8.63532 3.80712 6.55463
1 -3.80705 -6.55463 -8.63552
1 -3.80705 -6.55463 8.63552
1 -3.80695 6.55467 -8.63556
1 -3.80695 6.55467 8.63556
1 -6.55458 -8.63551 -3.80712
1 -6.55458 -8.63551 3.80712
1 -6.55444 8.63557 -3.80715
1 -6.55444 8.63557 3.80715
1 6.55472 -8.63556 -3.80715
1 6.55472 -8.63556 3.80715
1 6.55486 8.63552 -3.80712
1 6.55486 8.63552 3.80712
1 3.80723 -6.55467 -8.63556
1 3.80723 -6.55467 8.63556
1 3.80733 6.55463 -8.63552
1 3.80733 6.55463 8.63552
1 8.6356 -3.80712 -6.55463
1 8.6356 -3.80712 6.55463
1 8.63576 3.80716 -6.55467
1 -8.63548 -3.80716 -6.55467
1 6.31846 4.48687 6.04507
1 -6.31818 -4.48687 6.04507
1 -6.31803 4.48689 -6.04506
1 -6.31803 4.48689 6.04506
1 -4.4868 -6.04504 -6.31823
1 -4.4868 -6.04504 6.31823
1 -4.48668 6.04509 -6.31826
1 -4.48668 6.04509 6.31826
1 -6.045 -6.31822 -4.48687
1 -6.045 -6.31822 4.48687
1 -6.04485 6.31827 -4.48689
1 -6.04485 6.31827 4.48689
1 6.04513 -6.31827 -4.48689
1 6.04513 -6.31827 4.48689
1 6.04528 6.31822 -4.48687
1 6.04528 6.31822 4.48687
1 4.48696 -6.04509 -6.31826
1 4.48696 -6.04509 6.31826
1 4.48708 6.04504 -6.31823
1 4.48708 6.04504 6.31823
1 6.31831 -4.48689 -6.04506
1 6.31831 -4.48689 6.04506
1 6.31846 4.48687 -6.04507
1 -6.31818 -4.48687 -6.04507
