read_data       ${fname}
read_data       P8-15_D3_4.xyz
  orthogonal box = (-58.1637 -58.1637 -58.1637) to (58.1637 58.1637 58.1637)
  2 by 2 by 4 MPI processor grid
  reading atoms ...
  12288 atoms
change_box 	all triclinic
  triclinic box = (-58.1637 -58.1637 -58.1637) to (58.1637 58.1637 58.1637) with tilt (0 0 0)

include potential.mod
# NOTE: This script can be modified for different pair styles
# See in.elastic for more info.

# Choose potential
pair_style     rebo
pair_coeff     * * CH.airebo  C
Reading potential file CH.airebo with DATE: 2011-10-25

#pair_style     lcbop
#pair_coeff     C.lcbop
#pair_style     tersoff
#pair_coeff     BNC.tersoff


# Setup neighbor style
neighbor 1.0 nsq
neigh_modify once no every 1 delay 0 check yes

# Setup minimization style
min_style	     cg
min_modify	     dmax ${dmax} line quadratic
min_modify	     dmax 0.01 line quadratic

# Setup output
thermo		500
thermo_style custom step temp pe press pxx pyy pzz pxy pxz pyz lx ly lz vol
thermo_modify norm no


# Output
dump            1 all xtc 100 traj.xtc
dump            2 all xyz 2000 relaxed.xyz
#dump            4 all atom 10 dump.atom

# Compute initial state
fix 3 all box/relax  aniso 0.0
minimize ${etol} ${ftol} ${maxiter} ${maxeval}
minimize 0 ${ftol} ${maxiter} ${maxeval}
minimize 0 1e-10 ${maxiter} ${maxeval}
minimize 0 1e-10 10000000 ${maxeval}
minimize 0 1e-10 10000000 10000000
Neighbor list info ...
  1 neighbor list requests
  update every 1 steps, delay 0 steps, check yes
  master list distance cutoff = 7
Memory usage per processor = 5.10809 Mbytes
Step Temp PotEng Press Pxx Pyy Pzz Pxy Pxz Pyz Lx Ly Lz Volume 
       0            0   -84187.356    17703.162    17703.162    17703.157    17703.168 -0.00023672758 0.00082250075 -0.00034544687    116.32738    116.32738    116.32738      1574149 
     500            0   -88839.141    9.3797638    9.3797636    9.3797653    9.3797626 -0.0018444466 0.0022068794 -0.00024798963    118.00811    118.00811    118.00811    1643370.7 
    1000            0   -89803.566    13.016514    13.016514    13.016515    13.016513 -0.004044016 0.0042555255 -0.00019033212    117.21708    117.21708    117.21708    1610544.5 
    1500            0   -90107.464    49.598116    49.598123    49.598119    49.598104 -0.0049805499 0.0051088131 -0.00014270522    116.97127    116.97127    116.97127    1600433.6 
    2000            0    -90208.19    24.314555    24.314555    24.314555    24.314555 -0.0049721924 0.0050825868 -0.0001277874    116.87821    116.87821    116.87821    1596616.8 
    2500            0    -90316.93   -60.600566   -60.600567   -60.600568   -60.600563 -0.0048184632 0.0049178968 -0.00011490379    116.81084    116.81084    116.81084    1593857.1 
    3000            0   -90392.214    29.272763    29.272762    29.272762    29.272763 -0.0046649024  0.004760659 -0.00010874134    116.74448    116.74448    116.74448    1591142.3 
    3500            0   -90469.873   -48.835882   -48.833934    -48.37137   -49.302343 -0.0044837446 0.0045760586 -0.0001032381    116.71534     116.7152    116.71548    1589951.3 
    4000            0   -90521.082   -45.161898   -45.159667   -44.629631   -45.696396 -0.0043776477 0.0044673028 -9.9960084e-05    116.69137    116.69121    116.69153    1588971.8 
    4500            0   -90570.603    -44.62951   -44.627583    -44.16939   -45.091558 -0.0042888746 0.0043751806 -9.6545572e-05    116.67179    116.67165    116.67193    1588172.3 
    5000            0   -90619.003   -44.126263   -44.124544   -43.715507   -44.538739 -0.0042120868 0.0042940809 -9.2527465e-05    116.65508    116.65496    116.65521    1587489.9 
    5500            0   -90666.643   -43.671036   -43.669465   -43.295538   -44.048106 -0.0041424401  0.004217467 -8.5809074e-05     116.6405    116.64039    116.64061    1586894.7 
    6000            0   -90713.781   -43.249459   -43.247988    -42.89761   -43.602778 -0.0040769121  0.004145758 -8.0163828e-05    116.62748    116.62737    116.62759    1586363.4 
    6500            0   -90760.609   -42.849693   -42.848282   -42.511736   -43.189062 -0.004017386 0.0040788204 -7.3378421e-05    116.61559    116.61548    116.61569    1585878.1 
    7000            0   -90807.286   -42.464043   -42.462658   -42.132027   -42.797444 -0.0039614194 0.0040145524 -6.5885155e-05    116.60449    116.60439    116.60459    1585425.3 
    7500            0   -90853.955    -42.08688   -42.085493   -41.753927   -42.421221 -0.0039008289  0.003949141 -6.2047739e-05    116.59394    116.59384    116.59404      1584995 
    8000            0   -90900.754   -41.714977   -41.713563   -41.375137   -42.056232 -0.003839939 0.0038845242 -5.9500068e-05    116.58376    116.58366    116.58387    1584580.2 
    8500            0   -90947.826   -41.345602   -41.344136   -40.993007   -41.699663 -0.0037787488 0.0038193872 -5.6867507e-05    116.57384    116.57374    116.57395    1584175.8 
    9000            0   -90995.327   -40.975969   -40.974426   -40.604479   -41.349002 -0.0037167549 0.0037533488 -5.4249845e-05    116.56409    116.56398    116.56421    1583778.3 
    9500            0   -91043.432   -40.604551   -40.602904   -40.207307   -41.003443 -0.0036494596 0.0036817528 -5.1481344e-05    116.55446    116.55434    116.55458    1583385.7 
   10000            0   -91092.342   -40.229658    -40.22787   -39.797506     -40.6636 -0.0035777872 0.0036053711 -4.8362188e-05    116.54492    116.54479    116.54505    1582996.8 
   10500            0   -91142.287   -39.847581   -39.845599   -39.367557   -40.329589 -0.0035024995 0.0035250898 -4.5005449e-05    116.53545    116.53531     116.5356      1582611 
   11000            0   -91193.537   -39.453964   -39.451704   -38.905728    -40.00446 -0.0034217752 0.0034395009 -4.1723254e-05    116.52606    116.52589    116.52622    1582228.3 
   11500            0   -91246.385   -39.040893   -39.038219   -38.390785   -39.693674 -0.0033361138 0.0033488438 -3.8351867e-05    116.51674    116.51655    116.51694      1581849 
   12000            0   -91301.113    -38.59343   -38.590106   -37.783225   -39.406958 -0.0032452956 0.0032530851 -3.4928021e-05    116.50754     116.5073    116.50778    1581474.1 
   12500            0   -91357.879   -38.086271   -38.081902   -37.018147   -39.158764 -0.0031476027  0.003149938 -3.0967518e-05     116.4985    116.49818    116.49883    1581106.2 
   13000            0   -91416.535   -37.496249   -37.490285   -36.032803    -38.96566 -0.0030436337  0.003042047 -2.8384422e-05    116.48975    116.48931    116.49019    1580749.7 
   13500            0   -91476.595   -36.836084   -36.827999   -34.845253      -38.835 -0.0029376486 0.0029325879 -2.608086e-05    116.48143    116.48083    116.48203    1580411.2 
   14000            0   -91537.628   -36.159914   -36.149467   -33.577702   -38.752573 -0.0028308564 0.0028229197 -2.4197831e-05    116.47368     116.4729    116.47446    1580095.6 
   14500            0   -91599.766   -35.520183   -35.507446   -32.359268   -38.693837 -0.0027244708 0.0027137589 -2.2136874e-05     116.4665    116.46555    116.46746    1579803.6 
   15000            0   -91663.905   -34.947892   -34.933119   -31.266458     -38.6441 -0.0026181845 0.0026052466 -2.0365974e-05    116.45984    116.45874    116.46096    1579532.7 
   15500            0   -91732.046   -34.470213   -34.453802    -30.36172   -38.595119 -0.0025086476 0.0024951934 -2.0051202e-05    116.45358    116.45234    116.45483    1579277.9 
   16000            0   -91809.139    -34.15959   -34.142242   -29.794893   -38.541635 -0.0023898098 0.0023773673 -2.1113991e-05    116.44747    116.44616     116.4488    1579029.5 
   16500            0   -91932.076   -34.883358    -34.87369    -32.49373   -37.282654 -0.0023747157  0.002341423 -1.7827735e-05    116.43788    116.43716     116.4386    1578639.1 
   17000            0    -92055.03   -27.508696   -27.510516   -24.333748   -30.681823 -0.0019266179 0.0019259234 -2.1061373e-05    116.42499    116.42405    116.42593      1578115 
   17500            0   -92104.415    44.117853    45.044748    51.161721    36.147091 -0.0018619767  0.001868775 -2.7623538e-05    116.40803    116.40623    116.41065    1577436.6 
   18000            0   -92154.157   -3.3670174   -1.0423724   -10.647189    1.5885095 -0.0017816272 0.0017834331 -2.2072853e-05    116.40467    116.40748     116.4039    1577316.4 
   18500            0   -92209.185   -22.985288   -23.338347   -35.078948   -10.538571 -0.0017101656 0.0017119248 -2.100126e-05    116.39578    116.39918    116.39208    1576923.4 
   19000            0   -92238.391   -12.096824    -14.21063   -29.361084    7.2812408 -0.0016738379 0.0016756393 -2.0595851e-05    116.38758    116.39194    116.38139    1576569.3 
   19500            0     -92272.8    -24.34303   -24.956063   -25.391219   -22.681807 -0.0016309603 0.0016326091 -1.9968049e-05    116.38166    116.38178      116.381    1576346.3 
   20000            0   -92303.454    3.8209475    5.4429982    6.8653869  -0.84554241 -0.0015938773 0.0015954211 -1.944522e-05    116.37118    116.37077      116.373      1575947 
   20500            0   -92334.599   -9.2238248   -14.860144   -26.371635    13.560305 -0.0015562417 0.0015576802 -1.8840598e-05    116.37059    116.37392    116.36239    1575837.9 
   21000            0   -92367.873   -19.697196   -15.852999   -9.1527485   -34.085842 -0.001516557 0.0015178746 -1.833183e-05    116.36508    116.36314    116.37035    1575725.2 
   21500            0    -92398.08    1.8193072    4.9019283    11.380739   -10.824745 -0.0014815407 0.0014828293 -1.7922877e-05    116.35839    116.35652    116.36295    1575444.6 
   22000            0   -92428.432   -20.291063    -28.24349   -39.536422    6.9067219 -0.0014461738 0.0014474409 -1.7400273e-05    116.36191    116.36519    116.35172    1575457.7 
   22500            0   -92458.907    2.4027851   -2.8850986   -10.262618    20.356072 -0.0014117463 0.0014129164 -1.691837e-05    116.35481    116.35695    116.34806    1575200.4 
   23000            0   -92484.703    6.7438893    18.291808    30.265247   -28.325387 -0.0013826993 0.0013837335 -1.6518711e-05    116.34717    116.34369    116.36072    1575088.8 
   23500            0    -92514.32   -10.813369   -8.5267683    2.6612249   -26.574565 -0.0013493158  0.001350219 -1.5954936e-05    116.35053    116.34727    116.35579    1575116.2 
   24000            0   -92539.288   -40.066827   -39.692184   -37.829512   -42.678785 -0.0013213284 0.0013221268 -1.5465743e-05    116.35416    116.35362    116.35503    1575240.9 
   24500            0   -92562.205   -4.7162838   -4.8874246    21.138595   -30.400022 -0.0012965849 0.0012972904 -1.5081443e-05    116.34759    116.33999    116.35505    1574967.8 
   25000            0   -92583.426   -11.984539   -11.666903   -17.485106    -6.801608 -0.0012732349 0.0012739721 -1.4720021e-05    116.34764    116.34934    116.34621    1574975.2 
   25500            0   -92602.953   -4.5260494   -3.4020914   -11.828165    1.6521078 -0.0012520519 0.0012527803 -1.4405614e-05    116.34549    116.34796    116.34401    1574897.6 
   26000            0   -92625.639    22.718513    30.894502   -3.0505605    40.311596 -0.0012277389 0.0012285048 -1.4059444e-05    116.33846    116.34841    116.33569      1574696 
   26500            0   -92647.321   -10.144059   -5.9949704   -19.814132   -4.6230754 -0.001203929 0.0012046575 -1.3699129e-05    116.34423    116.34829    116.34383    1574882.6 
   27000            0   -92666.213     56.47621    69.694921    26.863553    72.870155 -0.0011843005 0.0011851238 -1.3472692e-05    116.33083    116.34342     116.3299    1574446.9 
   27500            0   -92691.767    23.907884    28.324501    14.928178    28.470974 -0.001156703 0.0011575899 -1.3116327e-05    116.33819    116.34214    116.33815    1574640.9 
   28000            0    -92711.08    10.483115     31.22929   -31.666474     31.88653 -0.001136113 0.0011370678 -1.2778035e-05    116.33537    116.35393    116.33518      1574722 
   28500            0   -92729.533    14.676462    32.865823   -22.221762    33.385325 -0.0011166038 0.0011175783 -1.2459409e-05    116.33547    116.35175    116.33532    1574695.8 
   29000            0   -92747.023    66.159023    64.816682    68.880518    64.779868 -0.0010985691  0.001099568 -1.224588e-05    116.33333    116.33213    116.33335    1574374.6 
   29500            0   -92763.258   -12.432912   -5.8055702   -25.865606   -5.6275603 -0.0010807169 0.0010817093 -1.1902291e-05    116.34337    116.34931    116.34331    1574877.8 
   30000            0   -92780.795    19.824506    27.769192    3.6531531    28.051172 -0.0010625591 0.0010635908 -1.1649424e-05    116.33822    116.34537    116.33813    1574684.6 
   30500            0   -92798.253    42.855657    46.739705    35.100919    46.726348 -0.0010443889 0.0010454772 -1.1366385e-05    116.33619    116.33964    116.33619    1574553.3 
   31000            0   -92813.341    12.652758    6.5615766    24.811156    6.5855418 -0.0010282551 0.0010293661 -1.1126091e-05    116.34421    116.33878     116.3442    1574758.7 
   31500            0   -92829.243   -41.977936   -54.494463    -16.99267   -54.446675 -0.0010111037 0.0010122453 -1.0890904e-05    116.35507     116.3439    116.35505    1575121.8 
   32000            0   -92843.862   -7.4204672    5.7124669   -33.637147    5.6632786 -0.00099600665 0.00099731929 -1.0612581e-05    116.34252    116.35425    116.34253    1574922.7 
   32500            0    -92878.22   -14.714881    -9.335067   -25.420314    -9.389261 -0.00095979765 0.00096125415 -1.0059667e-05    116.34731    116.35212    116.34733    1575023.5 
   33000            0   -92893.898    7.4752159    10.000688    2.4376441    9.9873154 -0.00094353908 0.00094512937 -9.8579003e-06    116.34543     116.3477    116.34544    1574912.8 
   33500            0   -92907.675   -28.113606   -8.1429653    -67.95168   -8.2461721 -0.00092890593 0.00093057712 -9.5508987e-06     116.3464    116.36433    116.34643    1575164.5 
   34000            0   -92921.905   0.62898445    17.607612    -31.48002    15.759362 -0.00097915885 0.00096347406 8.7119307e-06    116.34431    116.35889    116.34486    1575041.2 
   34500            0   -92942.532   -25.032188   -20.011192   -33.477414   -21.607959 -0.00095928725 0.00094949066 3.1811431e-06    116.35425    116.35826    116.35473    1575300.8 
   35000            0   -92979.277    -17.40414    -17.80121   -17.113071    -17.29814 -0.00093945505 0.00094106003 -7.1986634e-06    116.36018    116.35998    116.36004    1575476.3 
   35500            0   -93044.658    17.424588    16.066251     18.50971    17.697804 -0.00086755626 0.00087585831 -1.0556588e-05    116.36466    116.36394    116.36418    1575646.5 
   36000            0    -93163.68    1.3244418   -30.550519   -20.464244    54.988089 -0.00070138182 0.00075058838 -1.7084707e-05    116.39649     116.3935    116.37104      1576571 
   36500            0   -93227.159    14.152229    16.193758    5.9233309    20.339599 -0.00049917441 0.00066576817 0.00020450145    116.39037    116.39338    116.38911    1576731.3 
   37000            0   -93305.433   -8.2058748    -17.75822    4.9623238   -11.821728 0.0057756215 0.0029920301  0.015925626    116.39304    116.38622    116.39119    1576698.6 
   37500            0   -93355.811    15.788325    -3.441984    44.955285    5.8516739  0.054977311  0.019957647   0.16879402    116.33815    116.32433    116.33781    1574394.8 
   38000            0   -93413.989    37.715503    39.174094    36.960662    37.011754  0.053027558  0.010916948   0.14509002    116.19384    116.19361    116.19557    1568754.1 
   38500            0   -93457.548    5.4303867   0.13321847    9.6112079    6.5467337  -0.24246213   0.15321461  -0.12545592     116.1207    116.11707    116.11795    1565687.4 
   39000            0    -93492.94   -7.2878212    5.1746149   -8.7486706   -18.289408   -0.1858291  -0.30058894  -0.23781086    116.08123    116.08595    116.08888    1564344.1 
   39500            0   -93528.493    4.9806578    5.3982541    10.195972  -0.65225296  0.026335471  0.017114495  0.048163307    116.05213    116.05082    116.05397    1563008.5 
   40000            0   -93566.113    17.451558    29.818565   -7.5771767    30.113285  0.010615891  0.015551832 -0.0055759462    116.01235    116.02407    116.01225      1561551 
   40500            0    -93630.87   -4.9758063   -5.6096713    16.109061   -25.426809  0.016914273 -0.0017501448  0.015059108     115.9431    115.93542    115.94958    1558584.1 
   41000            0   -93682.083   0.79518844    48.071259   -29.223088   -16.462605  0.018708055 -0.012771756  0.048321927    115.83487     115.8595    115.85823    1554883.5 
   41500            0    -93730.09   -35.982263   -30.342058   -58.960918   -18.643814 -0.0074349576 -0.032010438  0.023551318    115.76103    115.77082    115.75649    1551339.4 
   42000            0   -93757.096   -12.376249   -8.3836551   -7.2278671   -21.517225 -0.0087025452 -0.023495719  0.012515239    115.71012    115.70963    115.71422    1549271.7 
   42500            0   -93789.171   -30.867721   -23.515562   -39.979686   -29.107915 -0.0071024915 -0.014751147 0.0059069193      115.662    115.66781    115.66394    1547395.1 
   43000            0    -93822.78    5.7277387    11.302467  -0.78558122    6.6663302 -0.0063451115  -0.01002942 0.0037922082    115.60645    115.61067     115.6079    1545138.7 
   43500            0   -93850.205    62.528698    49.147711    42.488542    95.949841 -0.0059620465 -0.0072032589 0.0030049604    115.56265    115.56462    115.54646    1543117.7 
   44000            0   -93881.349   -10.105689   -10.298408   -9.1652922   -10.853367 -0.0053075596 -0.0048166062 0.0017405184    115.52445    115.52398    115.52451    1541772.2 
   44500            0    -93915.84    37.898002    24.597669    46.869034    42.227305 -0.0046352709 -0.002498795 0.00096327981    115.46695    115.46011    115.46016    1539294.9 
   45000            0   -93949.297    53.975916    59.131225    49.589541    53.206981 -0.003973135 -0.00059494093 0.00079772872     115.4013    115.40511    115.40392    1536937.7 
   45500            0   -93979.854   -9.6338069   -4.7271036   -12.871564   -11.302753 -0.0033067736 0.0012409339 0.00068635379    115.36043    115.36303     115.3625    1535282.1 
   46000            0   -94005.745   -8.4642882   -12.471358   -4.7212949   -8.2002122 -0.0027539751  0.002737034 0.00085834749    115.31695    115.31415    115.31531    1533425.6 
   46500            0   -94034.313   -1.2680373    12.550667   -8.3469549   -8.0078239 -0.0021015338 0.0044960293 0.0013170325    115.25657     115.2636    115.26353      1531263 
   47000            0   -94059.085    58.016989    64.370243    52.316254     57.36447 -0.0014630066 0.0063785668  0.001878609    115.20062    115.20476    115.20299      1528935 
   47500            0   -94082.228    13.731916    11.240761    14.091069    15.863917 -0.0010270399 0.0089567544 0.0023073091    115.16548    115.16465    115.16387    1527417.6 
   48000            0   -94109.147   0.75039233    1.7358766    5.5944771   -5.0791767 -0.00075260721  0.012223409 0.0028480322    115.11135    115.10979    115.11347    1525304.6 
   48500            0   -94131.615    5.3605671    18.135863    8.5563528   -10.610515 -0.00093698517   0.01476769 0.0032825356    115.05824    115.06162    115.06837    1523365.6 
   49000            0   -94155.524   -17.439123   -25.087086   -4.2654464   -22.964838 -0.0018211322  0.017719809 0.0031435263    115.01665    115.00963    115.01635    1521438.9 
   49500            0   -94181.551    4.1687877   0.30358017    6.7573994    5.4453836 -0.0035993795  0.019758564 0.0018582285    114.95271    114.95038    114.95082    1518943.8 
   50000            0   -94207.637   -3.2999057   -7.7709014    -2.162319  0.033503514 -0.0057691011  0.018786891 -0.0006582071    114.89253    114.89114    114.89008    1516564.4 
   50500            0   -94232.372    15.902537    6.8039273     27.96795    12.935734 -0.0075657171  0.014810777 -0.0032530026    114.83284    114.82555    114.83093    1514131.2 
   51000            0   -94258.394   -16.221633   -19.974041   -18.836163   -9.8546959 -0.0098250099  0.013271513 -0.0061776598    114.77677    114.77704     114.7742    1512005.3 
   51500            0   -94278.949   -5.6237993   -5.4720431   -5.2158083   -6.1835465 -0.011061396  0.011527996 -0.0076606087    114.72911    114.72899    114.72931    1510153.8 
   52000            0   -94304.527    32.819658    24.124834    32.419089     41.91505 -0.012247915  0.011759663 -0.0093159026    114.67099    114.66914    114.66541    1507761.1 
   52500            0   -94323.592  -0.88986724   -11.613128    17.145987   -8.2024603 -0.012626345  0.012414744 -0.0095501256    114.63997    114.62984    114.63859    1506484.3 
   53000            0   -94347.704   -5.8928956   -5.1457725    -6.470683   -6.0622313 -0.011787528  0.013141349 -0.008809378    114.58922    114.58994    114.58963    1504650.2 
   53500            0   -94370.002   -27.597763   -48.979582   -41.514172    7.7004649 -0.0097480772  0.013232994 -0.0075643338    114.55667     114.5541    114.53689    1503060.3 
   54000            0   -94386.129    15.168988    11.615381    17.685461    16.206122 -0.0081902428  0.012914681 -0.0063986514    114.51003    114.50819     114.5091    1501481.9 
   54500            0   -94410.192    7.9414186    9.7094404    6.6293255    7.4854901 -0.0058232265  0.012180514 -0.0044911195     114.4611    114.46235    114.46169    1499618.4 
   55000            0   -94431.832   -8.1287624   -1.9104809   -10.977408   -11.498398 -0.0035681161  0.011803435 -0.002456122    114.41809    114.42129    114.42144    1497990.1 
   55500            0   -94454.337   -3.8675377   -4.5792547   -5.6222265   -1.4011317 -0.00065136982  0.012135508 0.00066597615    114.37365    114.37135     114.3706    1496089.6 
   56000            0   -94474.718    4.7484094   -23.245591    1.6353355    35.855484 0.0026739472  0.013203058 0.0032991075    114.33648    114.32815    114.31607    1494325.8 
   56500            0   -94497.819   0.71668209   -1.0792175    5.0556256   -1.8263618 0.0065080808  0.013938394  0.006031013    114.27786    114.27593    114.27836    1492384.9 
   57000            0   -94519.381    16.383191    32.798036    26.305724   -9.9541871 0.0059574411  0.012862224 0.0063448173    114.22133    114.22333    114.23621    1490410.1 
   57500            0   -94533.215    9.1721565    18.259551    4.6850572     4.571861 0.0083762668 0.0080388165 0.0053123036    114.19441    114.19924    114.19932    1489263.6 
   58000            0   -94552.868   -63.004474   -51.452851   -51.417782   -86.142789 -0.0053533662    2.1812127 -0.026318669    114.16263    114.15835    114.17274    1487969.6 
   58500            0   -94572.371    3.1902854    3.3022288    3.2348066    3.0338207   0.10174443  -0.25445114   0.64867826    114.11201    114.11218    114.11219      1485920 
   59000            0   -94590.557    -34.72903   -39.694996   -33.086056   -31.406037  0.028443037  0.012698428    2.0599879    114.07779    114.07825    114.07487    1484546.8 
   59500            0   -94605.674    1.2751357   0.60962403   -3.6586282    6.8744113 0.0021098425 -0.0049204167 0.00027820617    114.03717    114.04111    114.03492    1483015.6 
   60000            0   -94623.029    7.5598579    7.4452636     7.376714    7.8575961  0.002102848 -0.0044917268 -0.00029509471    113.99782    113.99856    113.99808      1481472 
   60500            0   -94641.677   -8.6758226    -6.026691   -12.402619   -7.5981581 0.0083564352 -0.016187228 -0.025892618    113.95755    113.96044    113.95831      1479937 
   61000            0   -94657.334    -53.98115   -51.675779   -54.266371     -56.0013 0.0049823992 -0.0010738817 0.00086986902    113.92942    113.93027    113.93104      1478826 
   61500            0   -94672.571     7.521685    8.1577427    4.5951002    9.8122121  0.051358259 0.0015570841  0.001090199    113.87838    113.87962    113.88031    1476848.5 
   62000            0   -94688.353     15.01974    24.075304    37.085845   -16.101928  -0.24585318    0.2372684  -0.11160549    113.83525    113.82968    113.84881    1475233.5 
   62500            0   -94705.229    4.5887247    14.718259    6.8206209   -7.7727059  0.014849628  0.012538937 0.0058290208     113.7915    113.79449    113.79969    1473574.7 
   63000            0   -94719.015    -12.35152   -17.463956   -16.147496   -3.4431071   0.01495397  0.010131844 -0.0079470054    113.76238    113.76122    113.75804    1472227.9 
   63500            0    -94731.56   -14.429555    -9.554895   -10.838067   -22.895704  0.023272369  0.028592859  0.013924486    113.72389     113.7245    113.72876    1470875.9 
   64000            0   -94746.786    1.3111847    1.1388908    1.1211334      1.67353  0.096315877 -0.021742347  -0.19743155    113.67957    113.67932     113.6794    1469080.7 
   64500            0   -94761.081   -1.5487795    8.3662623   -29.359669    16.347068  0.043200193  0.054120534  -0.07993093    113.63474     113.6485    113.63201    1467491.3 
   65000            0    -94774.74   -5.0803731   -8.7889198   -4.7557625    -1.696437   0.14146981  0.061924087  0.026624168    113.59986    113.59848    113.59763    1465951.5 
   65500            0   -94789.619   -4.2592385   -12.011549  -0.48267882  -0.28348822  -0.18521741  0.051981097  0.033792186    113.55612    113.55234    113.55231    1464207.4 
   66000            0   -94801.943   -6.0293292    1.0687543   -7.7347298   -11.422012   0.13050683  0.029265948  0.017184887    113.51231    113.51502     113.5183    1462723.3 
   66500            0   -94814.277     6.517015    6.3656773    6.6755848    6.5097829  0.032307823  0.020026899  0.012276314    113.47261    113.47232    113.47265    1461073.9 
   67000            0   -94826.799    2.2795852    6.8952095    10.155728   -10.212182 0.0088584637  0.087225122  -0.79765291    113.42872    113.42775    113.43554    1459457.7 
   67500            0   -94840.079    -0.988857   -0.3800208    12.386248   -14.972798 -0.080430644 -0.0091566093  0.023590143    113.38145    113.37861    113.38684    1457591.4 
   68000            0   -94852.691   -9.0867136   -9.5992914   -10.992067   -6.6687827   -0.3115636    0.7601605   0.52155849     113.3371    113.33733     113.3372    1455853.1 
   68500            0   -94861.233    10.032914    17.260029     10.59168    2.2470321  0.020159031  0.011162755 0.0080064527     113.2997     113.3023    113.30569    1454518.4 
   69000            0   -94873.653    16.938576    3.8907847    16.457058    30.467886  0.019096454  0.012581685  0.004222232    113.25744    113.25276    113.24785    1452598.2 
   69500            0   -94885.002   0.33664643   -2.6163493    0.4086941    3.2175944  0.067597138  0.013598116  0.014139995    113.21084    113.20985    113.20893    1450951.6 
   70000            0   -94896.173    13.370749     27.50326    3.1752267    9.4337601  0.027960389  0.038430463  0.039480132    113.15619    113.16482    113.16249    1449079.6 
   70500            0   -94905.671    3.3995971    3.2228377   -3.2144707    10.190424 -0.011696887   0.23043865  -0.02141786    113.11892    113.12184     113.1132    1447421.4 
   71000            0   -94913.679   -19.405514   -12.639848    -39.81795   -5.7587449  0.026192903  0.022424706  0.012328188    113.08722    113.09736    113.08499    1446341.9 
   71500            0   -94924.718    16.581757    29.354128    35.313946   -14.922804   0.22291779  -0.23246195   0.43947856    113.02627    113.02604     113.0438    1444124.6 
   72000            0   -94934.913    2.9444667   -12.854915    12.608967    9.0793482   0.14833781   -1.5634128   0.12156285    112.99273    112.98342    112.98491    1442399.7 
   72500            0    -94943.65   -2.2255318    4.5839194  -0.58658662   -10.673928  0.030449172  0.033911093   0.18667012    112.94127    112.94368    112.94874    1440774.5 
   73000            0   -94953.194     -1.30138    12.353899    3.7605974   -20.018636  -0.22475785   0.68778617    1.3533029    112.89079    112.89418    112.90474    1438938.6 
   73500            0   -94960.871   -5.5395847    5.5671092     -3.89702   -18.288843  -0.92800111   0.46151161 -0.043909162    112.85272    112.85547    112.86181    1437413.3 
   74000            0   -94969.796   -14.815109   -21.415436   -14.180013   -8.8498769    2.1771522  -0.35772887  -0.16057027    112.81577    112.81221    112.81058    1435739.8 
   74500            0   -94979.572   -2.6687831    1.6386462   -3.6645197   -5.9804758    2.2112869   0.43316538   -2.1598378    112.75905    112.76209    112.76303    1433775.8 
   75000            0   -94988.567    9.3877494   -10.511513    32.932537     5.742224  -0.54266021   0.46250652  -0.65502721    112.71813    112.70209    112.71361    1431865.1 
   75500            0   -94996.369    1.7034155   0.73535149    3.4567513   0.91814377 -0.033866253   0.10350742   0.16309433     112.6702    112.67054    112.67132    1430318.7 
   76000            0   -95005.069    12.079281    6.0267444    30.484108  -0.27300895   -0.4856014   0.94097903  0.047972301     112.6218    112.61215    112.62483    1428373.7 
   76500            0   -95016.135   -28.973809   -28.692553   -29.253596   -28.975278 -0.014574637  0.061870743 -0.024741915     112.5617    112.56192    112.56173    1426175.2 
   77000            0   -95027.782    9.2344195   -4.0542852    27.317716    4.4398278 -0.0076123667  0.048877889  0.023644507    112.48521    112.47374    112.48197    1423080.5 
   77500            0   -95039.471    3.0280724    2.8265208    2.1068677    4.1508288 -0.047792016  0.023723336   0.06677661    112.40016    112.40034     112.3993      1420032 
   78000            0   -95050.677    3.6895158    3.5995919    3.8498683    3.6190873 -0.026680729  0.012774261 -0.0034953897    112.31565    112.31525    112.31536    1416831.4 
   78500            0   -95063.646    20.979462    35.344409    25.022074    2.5719032 -0.023850158 -0.039249772 -0.015145929    112.20361    112.21054    112.21474    1412831.6 
   79000            0   -95072.624    18.023675    24.066768     14.62604    15.378218 -0.056258255 0.0005370019 -0.027383991    112.13679    112.14011    112.13948    1410157.6 
   79500            0   -95081.641    7.5145516    4.6095145    4.4956844    13.438456 -0.0042689652 -0.072093063 0.0076551504    112.06992       112.07    112.06642    1407517.9 
   80000            0   -95094.435   -22.270849   -29.805466   -11.492252    -25.51483  0.041283705  -0.25152851  0.075439426    111.97414    111.96697    111.97268    1403846.8 
   80500            0   -95103.422   -1.8356578   -3.6234144   -3.3053645    1.4218055   -0.1301826  0.094060327 -0.013769835    111.89517    111.89519    111.89307    1400960.8 
   81000            0    -95111.91    6.5388083    1.9050403    13.662282    4.0491028 -0.024452497 -0.0086708332 0.0086262213     111.8246    111.81983    111.82344    1398263.5 
   81500            0   -95117.655    6.4640901    16.304806   -1.1121039    4.1995682 0.0090574897 -0.0035726242 -0.009212674    111.77071    111.77678    111.77474    1396443.2 
   82000            0   -95121.929    2.1062676    5.5228785    2.4859771    -1.690053 -0.045475246 -0.0083855921  0.007412503    111.73731    111.73793    111.73943    1395099.8 
   82500            0     -95130.4     38.55179    60.159698    56.036936  -0.54126522  -0.09478412 -0.0018065725 -0.092346999     111.6501    111.64791    111.67043    1392027.8 
   83000            0   -95139.193   -12.581629   -12.419943   -22.692123   -2.6328217 -0.0041898369 -0.024094821 -0.0098346623    111.58994    111.59361    111.58573    1389546.3 
   83500            0   -95146.504    49.373805    55.197533      49.9783    42.945583  0.028196421   0.10913882   0.24298624    111.51357    111.51391    111.50982    1386659.7 
   84000            0   -95152.316    3.8686448   -2.7611486    10.903097     3.463986  0.042894478  0.059950887  0.042257584    111.47006    111.46481    111.46811    1384990.1 
   84500            0   -95156.547    10.487345    14.039628   -4.7710051     22.19341 -0.078789898   0.03766149  0.094304272    111.42565    111.43257    111.42368    1383486.1 
   85000            0   -95159.835   -18.164235   -15.253074   -28.642558   -10.597072 -0.0027115836 -0.005326512 -0.0027589101    111.40055    111.40557    111.39868    1382529.2 
   85500            0   -95164.774   0.26471268    3.8569767   -3.3589203   0.29608165   0.44292803   0.24338043   0.27621414    111.35053    111.35322    111.35186    1380678.4 
   86000            0   -95168.804   -1.3406235   -7.0864718   0.69404558    2.3705559   -0.3593413  -0.28523426  -0.35909369    111.31611    111.31318    111.31253    1379268.1 
   86500            0   -95174.692    3.4929136    2.2686661    4.7037628     3.506312 -0.099732894 -0.061408807 -0.056922099    111.25748    111.25653    111.25686    1377150.9 
   87000            0   -95180.393   -4.7710576    3.6518855   -36.160498     18.19544    1.9310248    2.5077202     1.297484    111.19923    111.21433    111.19426    1375133.6 
   87500            0   -95183.385   -2.9385377   -4.8485619   -1.4456089   -2.5214423  -0.71018922  -0.81993806  -0.15647673    111.17455    111.17359    111.17276    1374059.1 
   88000            0   -95185.082   0.38118033   0.41764643   0.36076812   0.36512645   0.14677549   0.20589361 -0.012146026    111.15707     111.1571    111.15722    1373447.2 
   88500            0   -95188.586     6.234456   -14.808036    6.9513515    26.560052 -0.057007394  -0.45575245   0.06025732     111.1287    111.12031    111.11243    1372089.1 
   89000            0   -95191.066    11.660828    2.3921116    24.425151    8.1652206   0.11632575  0.038764299  0.025399264    111.10064    111.09129    111.09819    1371208.7 
   89500            0   -95192.309    53.735788    50.963299     56.91119    53.332876   0.43363273 -0.094402673   0.40298442    111.07866    111.07617    111.07762    1370496.9 
   90000            0    -95195.54    1.9395103    2.3288379    1.9274381    1.5622549   0.29980496   0.49624005   0.11931602    111.05388      111.053    111.05522    1369629.2 
   90500            0    -95197.19   -1.6549833   -2.4456798   -1.7593698  -0.75990042  -0.37586061  -0.78666427 -0.022232018    111.03836    111.03703    111.03763    1369023.9 
   91000            0   -95198.916   -11.538926   -20.485012   -16.202408     2.070642  0.036804204 0.0079810297  -0.23448594     111.0269    111.02529    111.01887    1368506.8 
   91500            0   -95199.767    31.169274    43.847679     39.82849     9.831653   0.10010878  0.077982202   0.05785477    111.00338    111.00487    111.01611    1367931.1 
   92000            0   -95202.525   -30.058616   -32.262655   -38.760471   -19.152722   0.59928656  -0.34865161  -0.16778607    110.99135    110.99379    110.98678    1367284.9 
   92500            0   -95205.485    3.8312829    4.9928224  -0.33922736    6.8402537  0.099412726   0.23078453  -0.08586536    110.95541    110.95731    110.95464    1365997.3 
   93000            0   -95206.879   -9.3512744   -7.8089989   -33.134424      12.8896 -0.047095546   0.11591429  0.068329643    110.94349    110.95291    110.93567    1365562.9 
   93500            0   -95209.188   -2.5172625    1.8130344    1.1903592   -10.555181   0.11859152   0.25811316   0.12713028    110.91792    110.91817    110.92262    1364660.2 
   94000            0   -95211.233   -7.3487801   -12.481621   0.23091564   -9.7956352   0.48673306   0.36174717  0.098655308    110.90144    110.89642    110.90039    1363916.5 
   94500            0   -95212.081    -8.283003   -20.374152    8.2539903   -12.728848  0.032305715   0.19108445 -0.052552355    110.89561    110.88487    110.89272    1363608.4 
   95000            0    -95213.36   -2.4775521    11.939148   -24.021505    4.6497003  -0.28849972   -0.2610115  -0.25604861    110.87149    110.88489    110.87426    1363085.1 
   95500            0   -95214.184   -13.250893   -19.251884   -2.7977444   -17.703051 0.0029504153  0.057862372 -0.054225699    110.87249    110.86634     110.8719    1362840.3 
   96000            0   -95216.702    3.0855057    6.1534933    2.7486087   0.35441498   0.10070985    1.1721946   0.72339313    110.83658    110.83856    110.83883    1361651.4 
   96500            0   -95217.853    6.4100835    37.848769   -3.4390189   -15.179499 -0.014147133 -0.076683495  -0.10448104    110.81657    110.83199    110.83636    1361294.6 
   97000            0    -95219.33   -4.2946142   -1.9403918   -6.9579087   -3.9855419   0.15082764  0.062230369  -0.18101602    110.81176    110.81505    110.81381    1360750.5 
   97500            0   -95221.122    26.489881     36.69223    11.068989    31.708426  -0.21954454  -0.10502686    1.3518275    110.77396    110.78618    110.78065    1359524.8 
   98000            0   -95223.661    1.6001572    1.7945676   -5.0226799    8.0285838   0.80551496  -0.53547099  -0.19039778    110.76469    110.76789    110.76334    1358974.3 
   98500            0   -95225.009   -9.7997341   -2.2839649   -20.351819   -6.7634182  -0.56656519  0.070718316   0.25090792    110.74642    110.75475    110.75211    1358451.2 
   99000            0   -95227.273  0.034712066 -0.043820924   0.47044038  -0.32248326   0.34282503   0.34720666   0.79489638    110.72373    110.72353    110.72409    1357446.5 
   99500            0     -95228.7   -10.305797    -12.74379   -22.827852    4.6542506 -0.081122538  -0.10627544   0.02880742    110.70924    110.71301    110.70271    1356877.9 
  100000            0   -95230.167    1.9044497      4.05249     10.96167   -9.3008104   -1.0812659   0.42949857  -0.44447545    110.68142    110.67955    110.68276    1355882.6 
  100500            0   -95231.921    1.6931793   0.64378245   -1.2317209    5.6674763  -0.06349404   0.37922517  -0.66965097    110.66531    110.66596    110.66304    1355277.3 
  101000            0   -95232.501   -9.4709148    -8.084725    6.3306077   -26.658627   0.55650502  -0.44460079 -0.094536757    110.65734    110.65189    110.66278    1355004.1 
  101500            0   -95235.022     8.512558    18.275974    19.527688   -12.265988  -0.01560054   0.51376175 -0.094946837    110.61672    110.61628     110.6279    1353644.1 
  102000            0   -95236.598    1.5456172   -19.170079    1.3105503     22.49638 -0.038725502  -0.31850773  -0.02777416    110.60562    110.59823    110.59012    1352825.3 
  102500            0    -95237.84   -12.609424   -20.151968   -5.1635965   -12.512708   0.36269253  -0.99888979    0.3527816    110.57921    110.57405    110.57599    1352033.8 
  103000            0    -95239.21   -1.7150385   0.11332359   -4.1344374   -1.1240018 0.0074792846 -0.034342699 -0.025643358    110.55511     110.5567    110.55553    1351276.8 
  103500            0   -95240.496   0.73240556   0.83320414   0.65432989   0.70968264   0.13864477   0.05397458 -0.015711122    110.53157    110.53165    110.53161      1350391 
  104000            0   -95241.914   -4.6450861    -3.379534   -3.2190301   -7.3366943  -0.18436741  0.013083421 -0.010271313    110.50259    110.50258    110.50398    1349344.2 
  104500            0   -95242.437   -7.9720652    10.690164   -13.349149   -21.257211    2.4694154    1.4632192   -0.2154654    110.46798     110.4802    110.47658    1348314.3 
  105000            0   -95243.305   -5.1011971   -8.5814933   -5.3918873   -1.3302108   -1.0528145  -0.54827637   -1.2036029    110.46887    110.46837    110.46738    1348068.3 
  105500            0   -95243.766   -5.8175183   -7.9612163   -3.7569285   -5.7344101   -2.3846766  -0.18900255  -0.83031069    110.45556    110.45369    110.45512    1347577.3 
  106000            0   -95243.962    13.765769    12.523298    15.035233    13.738777  -0.97916446     1.107281    1.3630233    110.44188    110.44192    110.43872    1347066.8 
  106500            0   -95244.533   -1.7736923      16.5273    -7.817491   -14.030886  -0.22417517    -1.454981    1.6690016    110.38482    110.39287    110.40206      1345326 
  107000            0    -95245.89   -2.4722705    1.7443326   -4.9911308   -4.1700134  0.020456941  -0.67083641  -0.32698277    110.38054    110.38291    110.38301    1344920.4 
  107500            0   -95245.942    9.0515795     9.483006    8.5890403    9.0826923   0.96827268   0.15736741  -0.12719964    110.37679    110.37752    110.37642    1344728.8 
  108000            0   -95246.428   -0.1699785   0.20358583   0.71066835   -1.4241897  -0.31988631   0.45266414   0.48805315    110.35475     110.3541    110.35545    1343919.5 
  108500            0    -95246.55  -0.15464761   0.45235645    2.5672169   -3.4835162  -0.37854108    1.1613777   -1.8872653    110.33245    110.33172    110.33531    1343130.4 
  109000            0   -95246.863    10.098812    6.5754268    11.654018     12.06699    2.9650281   -1.3015482   -1.3079196    110.23745    110.23479    110.23376    1339560.8 
  109500            0   -95246.934    1.6785755   0.92382936 -0.098871445    4.2107687    1.2251156   -1.4667294  -0.60430339    110.21485    110.21571    110.21384    1338812.5 
  110000            0   -95246.953   -2.6457031   -1.4576789   -3.2880938   -3.1913365   0.11336613 -0.091644812  -0.82986071    110.21333    110.21353    110.21284    1338755.5 
  110500            0   -95246.976  -0.84781176  -0.26350671    -1.499569   -0.7803596   -2.5835482    2.3746992    2.4170852    110.21814    110.21945    110.21931    1338964.3 
  111000            0   -95247.115   0.82978842   -2.5470172    1.8118934     3.224489     1.426951   -1.9428178 -0.036267652    110.24949    110.24809    110.24762    1340037.4 
  111500            0   -95247.265  -0.45365899  -0.38472786  -0.43199663  -0.54425247   0.25178325   0.22056938  0.014662181    110.27746    110.27746    110.27737    1341096.1 
  112000            0    -95247.28   -2.3050204   -3.2449244  0.012637498   -3.6827742  -0.90439118    0.3040644   0.43921747    110.27906    110.27815    110.27929    1341147.3 
  112500            0   -95247.327  -0.84087697  -0.89388541  -0.76478808  -0.86395742    2.2313023   -1.5763745   -2.0575614    110.26616    110.26704    110.26746    1340711.4 
  113000            0   -95247.472    3.0156653    2.5166283    10.819289   -4.2889218   -1.5610235     1.582852    1.2899989    110.25072    110.24784    110.25235    1340106.7 
  113500            0   -95247.713   -5.9934667   -5.7287192   -6.0093997   -6.2422811    1.8194557   0.54091658  -0.69140867    110.23535    110.23526    110.23457    1339550.9 
  114000            0   -95248.199    2.2299822    1.7604476    3.7367173    1.1927817   0.79868146   -1.3459178   -1.8576161    110.15786    110.15604    110.15539    1336686.5 
  114500            0   -95248.477 -0.070859032  0.065879845   -1.5718203    1.2933633     0.153039  -0.67378815    1.6036469    110.07161    110.07302    110.07177    1333620.1 
  115000            0   -95248.579 -0.066775115  -0.72121441 -0.084299399   0.60518846  -0.23856022    -0.547766  -0.07575179     110.0193    110.01789      110.018      1331668 
  115500            0   -95248.736   -4.2914309    -12.21852  -0.70914525  0.053372563    1.4808452  -0.65237424   -1.8442431    109.88845    109.88526    109.88465    1326870.4 
  116000            0    -95248.86    3.7979144    4.8091781    3.3986151      3.18595  -0.88122786   0.59443455   0.91491736    109.78428    109.78378    109.78447    1323181.1 
  116500            0   -95248.935   -0.2628769  0.080366522  -0.22129938  -0.64769785    2.7372274     -2.16011   -2.2243717    109.72242    109.72331    109.72331    1320970.8 
  117000            0   -95249.012   -1.0704592  -0.93259147   -1.5416934  -0.73709285   -2.1955526    1.3336652    1.8861324    109.67415    109.67424    109.67375      1319203 
  117500            0   -95249.078   0.57558574    2.4095186   0.69910144   -1.3818628    1.3067303  -0.24087328  -0.11875535    109.63393    109.63518    109.63593    1317794.8 
  118000            0   -95249.163   -8.9899531   -6.7521104   -8.4873772   -11.730372   0.33805999   -1.2107946   -1.1248164    109.60105    109.60234    109.60358    1316616.5 
  118500            0   -95249.224   0.12073739  -0.21277713   0.72911056  -0.15412127  -0.86135609    2.0784951    2.7410982    109.56888    109.56747    109.56913    1315397.7 
  119000            0   -95249.315   -1.3136042   -1.0683786   -1.2465245   -1.6259096  -0.43859187  -0.29086157   -1.5217343    109.52003    109.51938    109.51983    1313642.8 
  119500            0   -95249.421    2.4861075    2.2882656    2.3418984    2.8281584 -0.039934265   -1.2749916  -0.68928289    109.46752    109.46657     109.4655    1311728.8 
  120000            0   -95249.542  -0.78027605    1.1885027   -2.2068349   -1.3224959  0.087471734   0.25775741   0.98961652    109.39116    109.39238    109.39239    1309050.5 
  120500            0   -95249.656 -0.057610711  -0.34261144   0.14607586   0.02370345   -1.6375348    2.0948242    1.2840036    109.32072    109.32056    109.32094    1306494.8 
  121000            0   -95249.734    9.8519112    12.707734    6.9916011    9.8563986 -0.027199663  -0.81961456    0.1135132    109.26899    109.27081    109.26956    1304668.9 
  121500            0   -95249.799   -7.3630382   -6.7014032   -7.5053031   -7.8824084 -0.043391332    1.1532688   0.54745583    109.23231    109.23309    109.23296    1303343.9 
  122000            0   -95249.834   0.15910502   0.11030635  0.062987404   0.30402131  -0.20253731  -0.14557647   0.25469309    109.22029    109.21995    109.22003    1302889.4 
  122500            0   -95249.851    2.9361538    2.7736252    3.2651336    2.7697027 -0.066746548 -0.067796371  -0.14746305    109.21477    109.21472    109.21495    1302700.8 
  123000            0   -95249.859   0.15806264   0.21415435   0.42642655  -0.16639297   0.15459405 -0.043788472  -0.14592258    109.21713    109.21685    109.21707    1302779.6 
  123500            0   -95249.868   -2.5866654   -2.6925706    -3.581172   -1.4862536  -0.71108038    0.5345342   0.18687595    109.22085    109.22181    109.22029    1302921.5 
  124000            0    -95249.88  -0.97324958   -1.0339819  -0.96954273  -0.91622413   0.71545017  -0.79182897  -0.56459746    109.23131    109.23089    109.23125    1303285.5 
  124500            0   -95249.897  -0.64765559   -1.5111639    1.2814191   -1.7132219 -0.092675372  0.094606908 -0.056916406    109.25287    109.25172    109.25307    1304051.6 
  125000            0   -95249.918   0.35217267   0.28989847 -0.0031278767   0.76974741  -0.42213457    1.4177716    1.1949047    109.28199    109.28174     109.2812    1305093.6 
  125500            0   -95249.944 -0.006907267 -0.051653361   0.62094015  -0.59000859   -1.0329485  -0.37829587  -0.12417574    109.31663    109.31631    109.31666      1306344 
  126000            0   -95249.968  -0.86151999   -3.3503873   0.94292581  -0.17709849     1.069437   -1.6573995  -0.63713609    109.35873    109.35807    109.35807    1307841.6 
  126500            0   -95249.983  -0.23720268  -0.53833064  -0.26305285  0.089775444   0.11694844 -0.093590596   0.18638914    109.39105    109.39048    109.39013    1308999.4 
  127000            0   -95249.999  0.057725719  -0.34520825   0.73404726  -0.21566185  -0.36367282   0.71021783  -0.17723586     109.4216    109.41978    109.42078    1310082.7 
  127500            0   -95250.014   0.41214702    1.7307644   -1.9035402    1.4092169  -0.57068564    1.4668926   0.79886002    109.45322    109.45437    109.45378    1311270.9 
  128000            0   -95250.023   0.26916325   0.71889095   0.42107977  -0.33248096  -0.40653967 -0.099850438   0.67455815    109.47662     109.4768    109.47789    1312108.9 
  128500            0   -95250.028 -0.048863627   0.41769584  -0.39350116  -0.17078557  -0.14333699   -0.2337049   0.52830738    109.48987    109.48976    109.49008    1312569.2 
  129000            0   -95250.032   0.24027902   0.69309637  -0.40576581   0.43350649   0.83202925  -0.11893454  -0.76004881    109.49995    109.50078    109.50066    1312949.1 
  129500            0   -95250.036    1.3244222    1.0223043    1.7164841    1.2344783    1.0869956  -0.95570524   -1.2638463    109.51407    109.51415    109.51437    1313443.1 
  130000            0    -95250.04    1.7671293    1.3189274    1.9915354     1.990925  -0.43328346   0.23530426  -0.10727561    109.52808    109.52795    109.52773    1313936.9 
  130500            0   -95250.044  -0.48135327   0.33391493  -0.80605037  -0.97192436   -1.2570438   0.53929127    1.3173547    109.54158    109.54188    109.54125    1314428.3 
  131000            0   -95250.048   0.42509483   0.37784694   0.41721026   0.48022729   -0.5520476   -0.2170201   0.97301755    109.55552    109.55538    109.55498    1314922.4 
  131500            0   -95250.051   -0.7910848  -0.76236763  -0.72655755  -0.88432922   0.56393215  -0.13269787  -0.56896651    109.57186    109.57217    109.57236    1315528.7 
  132000            0   -95250.055  -0.20583053  -0.59600682   0.33561686  -0.35710163   0.35013878   -0.4538741  -0.74141283    109.59218    109.59173     109.5925    1316249.5 
  132500            0    -95250.06  0.065976212   0.42488454 -0.064202022  -0.16275388   0.13274527   0.12428015  -0.60484135    109.61481     109.6138    109.61451    1317050.7 
  133000            0   -95250.064  -0.73625381   -0.7281254  -0.93894218  -0.54169384 0.0013899833   0.85902379   0.66547995    109.64043    109.63931    109.64004    1317972.1 
  133500            0   -95250.072    -1.362317   -1.3216039   -1.5875632    -1.177784  -0.63810645   0.67285695    1.8095146    109.67693    109.67673    109.67759    1319312.5 
  134000            0    -95250.08 -0.095975088  -0.25744777   -1.1726239    1.1421464   0.40559029  -0.95275521    1.1157613    109.71916    109.72071    109.71905    1320848.7 
  134500            0   -95250.089    0.5960666   0.67658967    1.9371351  -0.82552497  -0.58436205   -1.3132105   -2.0610375     109.7661    109.76488    109.76615    1322513.4 
  135000            0   -95250.099  -0.12594061   0.43011148  -0.05730379  -0.75062952   0.66591699 -0.081377857  -0.95325276    109.81053    109.81083    109.80996    1324130.7 
  135500            0   -95250.108  -0.10368904    -1.638017  -0.22982309    1.5567729  -0.65440902    1.1659422    1.1250471    109.85265    109.85128     109.8491      1325599 
  136000            0   -95250.117    1.1526216    2.0095371   0.83615459   0.61217298    0.3968647    1.0824569  -0.51322678    109.88368    109.88467    109.88436    1326802.2 
  136500            0   -95250.127  -0.32768526  -0.10840198   -2.0931751    1.2185213  -0.31182105 -0.071708188    0.6229944    109.91455    109.91619    109.91521    1327928.4 
  137000            0   -95250.137   0.49071943  -0.44786076   0.80853931    1.1114798   0.67188602   -1.3465164  -0.52620507    109.94076    109.94247     109.9416    1328881.6 
  137500            0   -95250.145    0.2623373   0.61953087    1.0400711  -0.87259003   0.92487167   -1.9670429   -2.1090359    109.95799    109.95923    109.95943      1329508 
  138000            0    -95250.15  0.019089864  0.088731979   0.10805906  -0.13952145  -0.18847925   0.28823966   0.10001177    109.96653    109.96709    109.96689    1329796.5 
  138500            0   -95250.153  -0.01614403  -0.12550905  -0.56254156   0.63961851   -0.5831095    1.1287272    0.6747434    109.97076    109.97123      109.971    1329947.5 
  139000            0   -95250.157  -0.13622859   0.34925915   0.58128073   -1.3392257   0.56043013   0.27395168  -0.14639768    109.97649     109.9767     109.9779    1330166.5 
  139500            0   -95250.161 -0.0034383444 -0.026531523   0.31284288  -0.29662639   0.34703223  -0.54014549  -0.15145456    109.98195    109.98148    109.98106    1330328.4 
  140000            0   -95250.163   0.30632284 -0.025123195  -0.20254937    1.1466411 -0.030160357  -0.69131473  -0.49064295    109.98322    109.98309    109.98201    1330374.8 
  140500            0   -95250.165   0.17904176   0.31746873  -0.67697877   0.89663533  -0.33595562  0.043146289  0.050165898     109.9844    109.98485     109.9841    1330435.6 
  141000            0   -95250.166   0.21399137  -0.22227326   0.73647798   0.12776938   0.30199408   0.14345365  -0.29102796    109.98623    109.98584    109.98609    1330493.8 
  141500            0   -95250.167  0.044647389  0.043838449    0.1291566 -0.039052882   0.07679775  0.057868027   0.23641941    109.98755    109.98752    109.98776    1330550.3 
  142000            0   -95250.168   0.35981847   0.32952877     0.314391   0.43553563   0.19169578   0.13168903  -0.33184707    109.98867    109.98898    109.98916    1330598.4 
  142500            0   -95250.169   0.35548534   0.43162376   0.34478821   0.29004405  -0.19602299  0.081431417  0.064712275    109.98947    109.98974    109.98994    1330626.7 
  143000            0   -95250.171  -0.12927115  -0.12058611  -0.13102131  -0.13620603    0.1442504  -0.37294862 -0.017746104    109.99076    109.99082    109.99069    1330664.5 
  143500            0   -95250.173  0.060988001  0.056290068   0.09857106  0.028102876  -0.13481452   0.32704489   0.13099197    109.99132     109.9917    109.99152    1330691.9 
  144000            0   -95250.176 -0.0055665374   0.22184946  -0.26470614  0.026157067   0.22733369  -0.20660462  -0.46769562    109.98915    109.98907    109.98897      1330603 
  144500            0   -95250.179    1.6861696    2.3450577    1.9504599   0.76299115  0.016179956  -0.12630256 -0.0046325963    109.98283    109.98356    109.98443    1330404.9 
  145000            0   -95250.185  -0.34438862   0.93685489  -0.35722568   -1.6127951   0.14307601    1.0618482    1.2382852    109.97582    109.97629    109.97761    1330149.8 
  145500            0   -95250.192   -1.7404883  -0.88385705   -2.2973755   -2.0402323   -0.2294708   0.25832066  -0.45600009     109.9621    109.96284    109.96313      1329646 
  146000            0   -95250.202  -0.41570753   -1.8400469    1.5284179  -0.93549356   0.36318842   -1.3988214   -1.2049644    109.93962    109.93862    109.93811      1328779 
  146500            0   -95250.215 -0.080127027 -0.00017350989  -0.25808485  0.017877276   0.28139043  -0.33134232   0.26588467    109.90614    109.90684     109.9047    1327586.9 
  147000            0   -95250.226  0.031156522  -0.31754404     0.678043  -0.26702939  -0.83875029   0.32945957    1.5111106    109.87219    109.87087    109.87037      1326328 
  147500            0   -95250.239   -1.0866711   -1.4797645   -0.9031114   -0.8771374  -0.91105945   0.56298505   0.98174189    109.84025    109.83801    109.83947    1325173.1 
  148000            0   -95250.281     -3.28565   -2.8480914   -1.7682881   -5.2405704    1.1339636   0.32142387   0.96208016    109.83562    109.83455    109.83571    1325030.1 
  148500            0   -95250.386   -0.5262486  -0.54958254  -0.54011105  -0.48905221  -0.49321579  -0.75030728  -0.16347191    109.82148    109.82095    109.82195    1324529.5 
  149000            0    -95250.45  -0.18663186   -0.4235629 -0.0096503698  -0.12668232  -0.29895232  -0.29746517   0.31128779    109.81961    109.81863    109.81953    1324449.9 
  149500            0   -95250.477  -0.26660348  -0.27782169  -0.10000911  -0.42197964  -0.53378361   0.79533217   0.53630723    109.82114    109.82021    109.82088    1324503.6 
  150000            0   -95250.494   -0.4904004  -0.26338337  -0.16704963   -1.0407682   0.59289498   -1.1231716   0.64840585    109.81847    109.81727    109.81879    1324410.7 
  150500            0   -95250.511  -0.67999421   0.43227416   -1.2467705   -1.2254863  -0.40053296  -0.53873194  0.013006465    109.81246    109.81349    109.81344      1324228 
  151000            0   -95250.524  -0.41815406  -0.48801806  -0.53858552  -0.22785858  -0.29123056   0.27280522  -0.65061216    109.80802    109.80856    109.80825    1324052.6 
  151500            0   -95250.539  -0.18678906   -0.0811781  -0.33115052  -0.14803856 -0.019604779  -0.28912506    0.4071708     109.8015     109.8018    109.80144    1323810.3 
  152000            0   -95250.553   -1.0236934   -2.6548122   0.08448604   -0.5007542   0.78189632  -0.38203351  -0.48116577    109.79545    109.79443    109.79378    1323556.1 
  152500            0    -95250.57   -2.6472219    1.1902182   -5.6114792   -3.5204048  -0.75357644  -0.48255273   -1.1569908    109.78437    109.78705    109.78595    1323239.3 
  153000            0   -95250.591  -0.32784453  -0.36462771  -0.31849721  -0.30040867  -0.31934077   0.87315758   0.45646628    109.77867    109.77978    109.77919    1323001.6 
  153500            0   -95250.607  -0.50660431  -0.85005103  -0.40872517  -0.26103673   0.50007721   0.44338392  -0.90683405    109.77487    109.77672    109.77618    1322882.5 
  154000            0   -95250.615  -0.17836811  0.023377528  -0.21155104  -0.34693081   0.33145655   0.14417663   -1.1896527    109.77529    109.77738    109.77604      1322894 
  154500            0    -95250.62  -0.15561103  -0.37593826 -0.015698659 -0.075196158   0.18550302   0.30043732  -0.40892352    109.77615     109.7781    109.77613    1322914.1 
  155000            0   -95250.624 -0.081676746 -0.027986183   -0.1772297 -0.039814352  0.034127672 -0.058065673  -0.73932092    109.77485    109.77645    109.77493      1322864 
  155500            0   -95250.627  -0.15497801  -0.17099128  -0.18734456   -0.1065982   0.15120294   0.12857859  -0.59746907    109.77196    109.77317    109.77193    1322753.5 
  156000            0    -95250.63  -0.31658981   0.38976536  -0.55037309  -0.78916171   0.34585943 -0.061215891  -0.89017625     109.7645    109.76609    109.76565    1322502.6 
  156500            0   -95250.633 -0.077069923  -0.10279966 -0.046942228 -0.081467877   0.29545549   0.26745065  -0.40586519    109.75972    109.76094    109.76027    1322318.1 
  157000            0   -95250.635  -0.31872404  -0.68326512   0.31944738  -0.59235437    0.2191587   0.39887251  -0.64446468    109.75714    109.75773    109.75715    1322210.8 
  157500            0   -95250.637  -0.16226777   -0.1954518 -0.052617136  -0.23873437   0.33038896   0.16790039  -0.45677942    109.75479    109.75583    109.75463    1322129.3 
  158000            0    -95250.64   -1.0362485   -1.1984251 -0.064498697   -1.8458217  -0.21302918    0.1996079   0.18437907    109.75241    109.75276    109.75239    1322036.7 
  158500            0   -95250.647  -0.13656084  -0.11941371  -0.26310886 -0.027159951   0.38319496   0.59980308   0.23477742    109.74683    109.74714    109.74864    1321856.5 
  159000            0   -95250.655  -0.22650721  -0.31732166 -0.030651299  -0.33154867   0.42548761   0.16548639   0.18160057    109.74174     109.7405    109.74281    1321645.1 
  159500            0   -95250.666  -0.46163781   0.18605381   -1.3207847  -0.25018256  -0.47885116   0.48301947    1.0081198    109.73105    109.72939    109.73075    1321237.4 
  160000            0   -95250.673  -0.15216549  -0.25304503  -0.29052035  0.087068896  -0.71639101   0.18130203    1.3756816    109.72096    109.71806    109.71962    1320845.6 
  160500            0   -95250.678   -0.9495724   0.64843904   -2.1184756   -1.3786807  -0.26743515  -0.65115459   0.77238802    109.71236    109.71027    109.71269    1320564.7 
  161000            0   -95250.684  -0.11997345  -0.11297176 -0.051847504   -0.1951011  -0.76286472  -0.40065506    1.4296153    109.70459     109.7013     109.7044    1320263.5 
  161500            0    -95250.69 -0.088425478 -0.027891886  -0.11042235   -0.1269622  -0.79493076  -0.47567766    1.3848509    109.69981    109.69556    109.69828    1320063.4 
  162000            0   -95250.695  -0.61664675   -0.4835683   -1.2499438  -0.11642812   -0.4996764  -0.84389725    1.0446063    109.69811    109.69452    109.69616    1320004.8 
  162500            0   -95250.698  -0.17137277  -0.34204158  -0.13736654 -0.034710203  -0.58170115  -0.19590465    1.0549926    109.69725    109.69444    109.69631    1319995.3 
  163000            0     -95250.7 -0.061572497 -0.048384362  -0.11150839 -0.024824741   -0.5344253  -0.61583844    1.1568098     109.6963    109.69381    109.69596      1319972 
  163500            0   -95250.702 -0.056125479 -0.026297146 -0.063757536 -0.078321756  -0.49088109  -0.60240371   0.83587434    109.69316    109.69113    109.69285    1319864.5 
  164000            0   -95250.703  -0.03353933 -0.026919873 -0.067099129 -0.0065989874  -0.32487816  -0.38086027   0.66404845    109.68947    109.68792    109.68915    1319737.1 
  164500            0   -95250.704  -0.02191529 -0.049074222 -0.018462531  0.001790884  -0.29377251  -0.43779601   0.62514364    109.68779    109.68649     109.6876    1319680.9 
  165000            0   -95250.704  -0.15611407 -0.024964611   -0.4467751 0.0033975157  -0.34158004  -0.30605536   0.37503154    109.68631    109.68527    109.68591    1319628.2 
  165500            0   -95250.705 -0.033189859 -0.044565182 -0.037206801 -0.017797593 -0.044913109  -0.33614964  0.074030819     109.6839    109.68323    109.68348    1319545.3 
  166000            0   -95250.706  -0.30486219  -0.72410656  0.059088081  -0.24956808 -0.033959627  0.048133738 -0.014081829    109.68342    109.68328    109.68288      1319533 
  166500            0   -95250.706  -0.51201355  -0.33652253   0.20359978   -1.4031179    0.1558049   0.01688974  -0.20198059    109.68277    109.68325    109.68291    1319525.2 
  167000            0   -95250.707 -0.026017317  -0.03913867  -0.02085047  -0.01806281   0.37958267   0.37271208  -0.31076973    109.68205    109.68329    109.68247    1319511.7 
  167500            0   -95250.707 -0.021945529 -0.038720141 0.0062538035  -0.03337025   0.37586317   0.52469094  -0.37431186    109.68105    109.68275    109.68194    1319486.8 
  168000            0   -95250.708  -0.17890164  -0.16708122  0.072182353  -0.44180605   0.33635763   0.43253418  -0.43314367    109.68045    109.68211    109.68112      1319462 
  168500            0   -95250.708  -0.37259289   -0.6704806  -0.47640411  0.029106037   0.17390267   0.19736893  -0.50381449    109.68043    109.68159    109.68007    1319442.9 
  169000            0   -95250.708  -0.14883638   0.13602709  -0.28660218  -0.29593404   0.19543126   0.15541485  -0.45640303    109.68003    109.68131    109.68035    1319438.2 
  169500            0   -95250.708 -0.032699147 0.00059242052 -0.072464691 -0.026225171  0.088268054   0.18056593   -0.4058813     109.6801    109.68099    109.68023    1319433.6 
  170000            0   -95250.708 -0.016103031 -0.015238246 -0.026982052 -0.0060887953  0.094000309   0.10593389  -0.32651018     109.6797    109.68037    109.67972    1319415.3 
  170500            0   -95250.709 -0.099821845 -0.047219722 -0.059535925  -0.19270989  0.058850436  0.094055334  -0.29107167    109.67912    109.67971    109.67936      1319396 
  171000            0   -95250.709 -0.035389224 -0.072641058 -0.035834979 0.0023083661  0.076236996  0.092337245  -0.23893284    109.67892    109.67943    109.67913    1319387.4 
  171500            0   -95250.709 -0.075420503  0.023355224  -0.11526818  -0.13434856  0.047734511  0.051361651   -0.2231064    109.67904    109.67945    109.67919    1319389.8 
  172000            0   -95250.709 -0.044216451  0.013177905  -0.10279693 -0.043030325  0.043468664  0.040907227  -0.16116804    109.67918    109.67949    109.67926    1319392.9 
  172500            0   -95250.709 -0.0022011398 -0.0025704699 -0.0011494994  -0.00288345  0.036540108  0.040216368  -0.10156758    109.67921    109.67933    109.67922    1319390.9 
  173000            0   -95250.709 -0.0022838189 -0.0031781187 -0.0042570421 0.00058370408  0.032200455  0.029109413 -0.052783783    109.67911    109.67911    109.67907    1319385.1 
  173500            0   -95250.709 -0.017320472 0.00093710757 -0.0088793799 -0.044019144  0.021918086  0.026567652  -0.02130244    109.67902      109.679    109.67903    1319382.2 
  174000            0   -95250.709 -0.0016764529 -0.0011134212 -0.0017076807 -0.0022082568  0.011004148   0.01764388  0.013033147    109.67901    109.67894    109.67901    1319381.1 
  174500            0   -95250.709 -0.0015411937 -0.0020381419 -0.001398789 -0.0011866503 -0.0015435904 -0.0076212232  0.046760558    109.67903     109.6789    109.67902      1319381 
  175000            0   -95250.709 -0.0016431487 -0.00059195898 -0.0022345924 -0.0021028949 -0.016092702 -0.027114502  0.053162048    109.67898    109.67885    109.67895    1319379.1 
  175500            0   -95250.709 -0.010097474 0.0037580057  -0.02073297 -0.013317459 -0.032673562 -0.032132097  0.080188476    109.67884    109.67869    109.67878    1319373.4 
  176000            0   -95250.709 -0.027828222 -0.067427707 0.0053126115 -0.021369571 -0.029059307 -0.049088227  0.073515959    109.67874    109.67855    109.67866      1319369 
  176500            0   -95250.709 -0.011981747 -0.029817319 0.0016124433 -0.0077403662 -0.030560384 -0.028757571  0.083440492    109.67859    109.67847    109.67856    1319365.1 
  177000            0   -95250.709 -0.0067250817 -0.016914497 -0.0005171049 -0.002743643 -0.028037297 -0.028413551  0.067927748    109.67852    109.67844     109.6785    1319363.1 
  177500            0   -95250.709 -0.009242666 0.0028293747 -0.014401114 -0.016156259 -0.023976394    -0.023109  0.057524427    109.67848    109.67843    109.67849    1319362.3 
  178000            0   -95250.709 -0.0027708341 -0.0064807877 -0.0020368207 0.00020510599 -0.019866815  -0.02019582  0.046192685    109.67846    109.67842    109.67844    1319361.5 
  178500            0   -95250.709 -0.0043812751 0.00044914656 -0.003825161 -0.0097678108 -0.016729958 -0.014967992  0.021489105     109.6784    109.67839    109.67839    1319359.8 
  179000            0   -95250.709 -0.0040191983 -0.0015331283 -0.0010392923 -0.0094851744 -0.0031224008 -0.00038106549 -0.00027527223    109.67829    109.67831    109.67829    1319356.3 
  179500            0   -95250.709 -0.0025777166 -0.0019490576 -0.0057791292 -4.9629899e-06  0.007904139  0.010393568 -0.026546561    109.67819    109.67825    109.67821    1319353.4 
  180000            0   -95250.709 -0.0035267401 0.00090827654 -0.0079584537 -0.0035300432  0.015701133  0.017862031 -0.042797507    109.67809    109.67817    109.67812    1319350.2 
  180500            0   -95250.709 -0.0038837423 -0.0084457012 -0.0044376763 0.0012321505  0.020438431  0.020928714 -0.050478239    109.67798    109.67805    109.67799    1319345.8 
  181000            0   -95250.709 -0.004118528 -0.0064679877 0.0017014479 -0.0075890442  0.020378935  0.024068776 -0.048477689     109.6779    109.67795     109.6779    1319342.5 
  181500            0   -95250.709 -0.011751194 0.0035924468 -0.015075778 -0.023770251    0.0214155  0.018768878 -0.043105167    109.67785    109.67789    109.67787      1319341 
  182000            0   -95250.709 -0.002608429 -0.0038806485 0.00090290963 -0.004847548  0.015947931  0.015836985 -0.028764443    109.67782    109.67784    109.67783    1319339.4 
  182500            0   -95250.709 -0.0021390238 -0.0045898928 -0.0022570773 0.00042989852 0.0069619349 0.0048812271 -0.013632387    109.67778    109.67777    109.67777    1319337.5 
  183000            0   -95250.709 -0.001420198 -0.0030874382 0.00062324063 -0.0017963963 0.0021554047 0.0016062945 -0.0010026601    109.67776    109.67775    109.67776    1319336.8 
  183500            0   -95250.709 -0.00010001423 -0.00011499602 -0.00013352577 -5.1520906e-05 0.00044016429 -0.0011538056 0.0020865734    109.67774    109.67773    109.67774    1319336.1 
  184000            0   -95250.709 -0.00011631625 -9.3043907e-05 -0.00012352669 -0.00013237815 -0.0018194762 -0.002328313 0.0054031525    109.67771     109.6777    109.67771      1319335 
  184500            0   -95250.709 2.3961594e-05 -0.0001257805 0.00015739803 4.0267251e-05 -0.0041581466 -0.0045029707  0.007045153    109.67768    109.67768    109.67768    1319333.9 
  185000            0   -95250.709 2.7732679e-05 0.00010403632 -4.3529507e-05 2.2691223e-05 -0.0024292293 -0.0026642886 0.0061841932    109.67767    109.67767    109.67767    1319333.7 
  185500            0   -95250.709 0.0019188108 0.0028418618 0.0009948592 0.0019197115 -0.0017903579 -0.0017327499 0.0039136147    109.67766    109.67766    109.67766    1319333.5 
  186000            0   -95250.709 0.00020775718 -0.00069807544 0.0011027702 0.00021857675 -0.0019216168 -0.00081306187 0.0015547415    109.67766    109.67766    109.67766    1319333.3 
  186500            0   -95250.709 0.0001536954 0.00016016125 0.00014781415 0.0001531108 -0.00012769727 0.0013589329 -0.00075114263    109.67765    109.67766    109.67766    1319333.2 
  187000            0   -95250.709 0.00049905391 0.00028472996 0.00067431712 0.00053811465 0.0011339969 0.0024809306 -0.0027876034    109.67765    109.67765    109.67765      1319333 
  187500            0   -95250.709 0.00011797013 0.00031216034 -2.4111305e-05 6.5861367e-05 0.0031232055 0.0044419146 -0.0056993066    109.67764    109.67764    109.67764    1319332.7 
  188000            0   -95250.709 7.0148753e-05 -0.00012259947 0.0001953849 0.00013766083 0.0044127834 0.0062811226 -0.0069253514    109.67763    109.67763    109.67763    1319332.2 
  188500            0   -95250.709 0.00039724655 -0.001540892 0.0013918843 0.0013407474 0.0054298426 0.0075347116 -0.0099535608    109.67761    109.67761     109.6776    1319331.4 
  189000            0   -95250.709  0.001665438 0.0024094268 0.0014289703 0.0011579171 0.0096260431 0.0084068267 -0.013709283    109.67758    109.67758    109.67757    1319330.3 
  189500            0   -95250.709 0.00015846336 5.7315618e-05 0.00014970958 0.00026836487  0.010878561  0.010180437 -0.020190932    109.67755    109.67755    109.67754    1319329.3 
  190000            0   -95250.709  0.001269544 0.0013865057  0.001469276 0.00095285026  0.012809344   0.01357831 -0.022334754    109.67752    109.67753    109.67752    1319328.4 
  190500            0   -95250.709 5.8647382e-05 8.2328295e-05 -3.3270611e-05 0.00012688446   0.01360553  0.014938739  -0.02142877    109.67751    109.67751     109.6775    1319327.8 
  191000            0   -95250.709 0.00011475644 0.00043399218 -0.00011876411 2.9041234e-05  0.013702387  0.013659761 -0.023748871    109.67749     109.6775    109.67749    1319327.4 
  191500            0   -95250.709 8.4890772e-05 -0.00016092588 5.436446e-06 0.00041016175  0.014504147  0.013116569 -0.025946479    109.67748    109.67749    109.67749    1319327.1 
  192000            0   -95250.709 0.00011365153 5.3520421e-05 0.00034909702 -6.166287e-05  0.014559681   0.01260029  -0.02747963    109.67747    109.67748    109.67748    1319326.8 
  192500            0   -95250.709 8.1972313e-05 0.00015745498 5.0507706e-05 3.795425e-05   0.01362795  0.012347982 -0.026149072    109.67746    109.67747    109.67747    1319326.4 
  193000            0   -95250.709 0.00090662607 0.0010279186 0.00014797674 0.0015439829  0.012299463   0.01275032 -0.023960529    109.67745    109.67746    109.67746    1319325.9 
  193500            0   -95250.709 0.0011202278 0.00062502492 0.0012845048 0.0014511538 0.0098722333  0.011339026 -0.022429584    109.67744    109.67744    109.67745    1319325.4 
  194000            0   -95250.709 0.00017530074 0.00021136746 0.00045085773 -0.00013632297 0.0085185065  0.009371278 -0.022838532    109.67743    109.67743    109.67743      1319325 
  194500            0   -95250.709 0.00019159049 0.00056610649 -0.00023310621 0.00024177118 0.0082568757 0.0083837936 -0.021883223    109.67742    109.67742    109.67742    1319324.6 
  195000            0   -95250.709 0.00032051375 0.00017062555 0.00035636757 0.00043454812 0.0076377908 0.0065313568 -0.021316892    109.67741    109.67741    109.67741    1319324.3 
  195500            0   -95250.709 0.00030135597 0.00024999026 0.0002073203 0.00044675736 0.0079616786 0.0054096529 -0.021188698     109.6774     109.6774     109.6774      1319324 
  196000            0   -95250.709 0.00054357148 0.00068052145 0.00029935155 0.00065084145  0.007402017 0.0051383025 -0.019647543    109.67739     109.6774    109.67739    1319323.7 
  196500            0   -95250.709 0.00028194844 0.00011306031 0.00035859053 0.00037419447 0.0065612874 0.0047692896 -0.017622169    109.67739    109.67739    109.67739    1319323.5 
  197000            0   -95250.709 0.00027023103 0.00029550102 0.00030274794 0.00021244413 0.0062463877 0.0046952316 -0.016180367    109.67738    109.67739    109.67738    1319323.3 
  197500            0   -95250.709 0.00019952801 0.00017500768 0.00023940311 0.00018417325 0.0056317378 0.0043788781 -0.014240631    109.67738    109.67738    109.67737    1319323.1 
  198000            0   -95250.709 0.00034460811 0.00041470272 0.00032688315 0.00029223846 0.0046783013  0.003946637  -0.01292917    109.67737    109.67738    109.67737      1319323 
  198500            0   -95250.709 0.00025462397 0.00022476214 0.00046933875 6.9771021e-05 0.0041494618 0.0033310412  -0.01235937    109.67737    109.67737    109.67737    1319322.9 
  199000            0   -95250.709 0.00023236168 0.00018876944 0.00024453206 0.00026378354 0.0044112354 0.0026343071 -0.012191455    109.67737    109.67737    109.67737    1319322.8 
  199500            0   -95250.709 0.00018007202 0.00036434842 -7.1702071e-05 0.00024756972 0.0048522652 0.0018401899 -0.011040456    109.67737    109.67737    109.67736    1319322.7 
  200000            0   -95250.709 0.00027697623 0.00013198606 0.00055787913 0.00014106351 0.0038868842 0.0015725983 -0.0094195622    109.67736    109.67736    109.67736    1319322.6 
  200500            0   -95250.709 0.00022769175 0.0002138027 0.00022963698 0.00023963556 0.0028399473 0.0015394349 -0.0075925148    109.67736    109.67736    109.67736    1319322.5 
  201000            0   -95250.709 0.00017573394 0.00035227409 0.00010371527 7.1212476e-05 0.0020114647 0.0019164354 -0.005594651    109.67736    109.67736    109.67736    1319322.4 
  201500            0   -95250.709 0.00016281003 0.00010885336 0.00022001313 0.00015956359 0.0014095023 0.0024349567 -0.0032185106    109.67735    109.67735    109.67735    1319322.3 
  202000            0   -95250.709 0.00031961484 0.00032935503 0.00031635899 0.00031313049 0.0009675736 0.0026458787 -0.0011164955    109.67735    109.67735    109.67735    1319322.2 
  202500            0   -95250.709 0.00010358812 0.00020702221 4.4620575e-05 5.9121577e-05 0.00079963059 0.0023411461 -0.00023561247    109.67735    109.67735    109.67735    1319322.1 
  203000            0   -95250.709 0.00016611085 0.00026058988 0.00016935206 6.8390611e-05 0.00069424721  0.001877679 9.6152147e-05    109.67735    109.67735    109.67735    1319322.1 
  203500            0   -95250.709 0.00012751222  0.000123448 0.00015192899 0.00010715968 0.00080858108 0.0012187037 0.00048854993    109.67735    109.67734    109.67735      1319322 
  204000            0   -95250.709 0.00011356379 0.00015187266 9.3033668e-05 9.5785046e-05 0.0011728496 0.00026635936 0.00058708132    109.67734    109.67734    109.67735    1319321.9 
  204500            0   -95250.709 8.2073627e-05 8.2639185e-05 0.00011044812 5.313358e-05 0.0013670029 -0.00065029953 0.00045562896    109.67734    109.67734    109.67735    1319321.9 
  205000            0   -95250.709 0.00014819091 7.0798347e-05 0.00017754432 0.00019623006 0.0011620659 -0.00093172885 0.00063705261    109.67734    109.67734    109.67734    1319321.8 
  205500            0   -95250.709 0.0001221277 0.0001177282 0.00013292923 0.00011572567 0.00078523791 -0.00099162559 0.0013390235    109.67734    109.67734    109.67734    1319321.8 
  206000            0   -95250.709 0.00013699158 6.0706439e-05 0.00011991656 0.00023035174 0.00011288454 -0.00079800792  0.002362877    109.67734    109.67734    109.67734    1319321.8 
  206500            0   -95250.709 0.00014627252 0.00021467414 7.1527596e-05 0.00015261582 -0.00056269348 -0.00054990008 0.0031805734    109.67734    109.67734    109.67734    1319321.8 
  207000            0   -95250.709 6.582807e-05 5.4854808e-05 4.2273414e-05 0.00010035599 -0.00095236392 -0.00051824425  0.003453254    109.67734    109.67734    109.67734    1319321.8 
  207500            0   -95250.709 8.3422122e-05 6.2511118e-05 9.4975619e-05 9.277963e-05 -0.0010633129 -0.00052649563 0.0038638968    109.67734    109.67734    109.67734    1319321.8 
  208000            0   -95250.709 0.00012119545 0.00012089819 0.00012240426 0.00012028389 -0.00091838867 -0.00046260714 0.0041928046    109.67734    109.67734    109.67734    1319321.8 
  208500            0   -95250.709 0.00011084903 9.5359223e-05 0.00011308641 0.00012410145 -0.00080133548 -0.00083871102 0.0039204225    109.67734    109.67734    109.67734    1319321.8 
  209000            0   -95250.709 0.00012861861 0.00013611061 0.00011326784 0.00013647739 -0.00077314681 -0.0013847365 0.0035531418    109.67734    109.67734    109.67734    1319321.8 
  209500            0   -95250.709 0.00021618352 0.00025614583 0.00021385441 0.00017855033 -0.00076856499 -0.0015683504 0.0038921172    109.67735    109.67734    109.67734    1319321.9 
  210000            0   -95250.709 0.00011633402 0.00011371295 0.00012868232 0.00010660679 -0.00083204818 -0.0015832987 0.0047444363    109.67735    109.67734    109.67734    1319321.9 
  210500            0   -95250.709 0.00018663127 0.0001928952 0.00018196953 0.00018502906 -0.0008832657 -0.0015567189 0.0056811427    109.67735    109.67734    109.67734      1319322 
  211000            0   -95250.709 0.00013268722 0.00019756936 0.00015165969 4.8832614e-05 -0.0012888693 -0.001787965 0.0067027184    109.67735    109.67734    109.67734      1319322 
  211500            0   -95250.709 0.00020551275 0.00020047811 0.00018337523 0.00023268491 -0.0017931973 -0.0021697552 0.0073988762    109.67735    109.67735    109.67735      1319322 
  212000            0   -95250.709 0.00016976592 0.00016935277 0.00016722653 0.00017271846 -0.0020587892 -0.0018790649 0.0080989576    109.67735    109.67735    109.67735      1319322 
  212500            0   -95250.709 0.00011900283 5.0175707e-05 2.6526895e-05 0.0002803059 -0.0021425948 -0.0016820209 0.0084563896    109.67735    109.67735    109.67735    1319322.1 
  213000            0   -95250.709 6.3592938e-05 4.7904414e-05 6.6858085e-05 7.6016315e-05 -0.002318445  -0.00206075 0.0082218153    109.67735    109.67735    109.67735    1319322.1 
  213500            0   -95250.709 0.00012561051  5.81241e-06 0.0002362599 0.00013475922 -0.0023962314 -0.0027092095 0.0075080677    109.67735    109.67735    109.67735    1319322.1 
  214000            0   -95250.709 7.3078754e-05 6.8629647e-05 9.6487258e-05 5.4119358e-05 -0.0024800883 -0.0029741726 0.0068868571    109.67735    109.67735    109.67735    1319322.1 
  214500            0   -95250.709  7.24061e-05 0.00013058445 8.8669588e-05 -2.0357365e-06 -0.0024996036 -0.002881521  0.006565489    109.67735    109.67735    109.67735    1319322.1 
  215000            0   -95250.709 0.00012588112 0.00013328319 0.00011956674 0.00012479342 -0.0026046531 -0.0029836677 0.0062768924    109.67735    109.67735    109.67735    1319322.1 
  215500            0   -95250.709 0.00021415879 0.00020133965 0.00025422783 0.0001869089 -0.0027208637 -0.003071465 0.0063647939    109.67735    109.67735    109.67735    1319322.1 
  216000            0   -95250.709 0.00018850383 0.00018527531 0.00017463588 0.0002056003 -0.0027873498 -0.0029044964 0.0068671333    109.67735    109.67735    109.67735    1319322.1 
[...]
  triclinic box = (-54.8387 -54.8387 -54.8387) to (54.8387 54.8387 54.8387) with tilt (-0.00109677 0 0)

# Relax atoms positions

minimize ${etol} ${ftol} ${maxiter} ${maxeval}
minimize 0 ${ftol} ${maxiter} ${maxeval}
minimize 0 1e-10 ${maxiter} ${maxeval}
minimize 0 1e-10 10000000 ${maxeval}
minimize 0 1e-10 10000000 10000000
Neighbor list info ...
  1 neighbor list requests
  update every 1 steps, delay 0 steps, check yes
  master list distance cutoff = 7
Memory usage per processor = 3.96116 Mbytes
Step Temp PotEng Press Pxx Pyy Pzz Pxy Pxz Pyz Lx Ly Lz Volume 
 5032324            0   -95250.709 0.0010413442 0.0045869538 0.0084113607 -0.0098742819    2.3032443 -0.018779809 -0.012106046    109.67747    109.67747    109.67747    1319326.6 
 5032500            0   -95250.709 -0.00012876586 -4.7930642e-05 -0.00041729602 7.8929078e-05    0.7227189 -1.9808919e-05 0.00012968076    109.67747    109.67747    109.67747    1319326.6 
 5033000            0   -95250.709 -6.5351078e-05 -7.8824006e-05 -9.1365854e-05 -2.5863373e-05   0.59203187 7.928396e-06 -1.5948658e-06    109.67747    109.67747    109.67747    1319326.6 
 5033500            0   -95250.709 -6.5960436e-05 -8.3562697e-05 -8.2664252e-05 -3.1654361e-05   0.59191846 2.300188e-06 -6.6036395e-07    109.67747    109.67747    109.67747    1319326.6 
 5034000            0   -95250.709 -6.6278092e-05 -8.5057723e-05 -8.0506008e-05 -3.3270545e-05   0.59190911 -3.3414737e-08 -1.010775e-09    109.67747    109.67747    109.67747    1319326.6 
 5034500            0   -95250.709 -6.3891286e-05 -8.2565692e-05 -7.832984e-05 -3.0778325e-05   0.59190917 1.1389528e-10 -5.5469237e-10    109.67747    109.67747    109.67747    1319326.6 
 5035000            0   -95250.709 -6.4284355e-05 -8.297255e-05 -7.8688545e-05 -3.1191971e-05   0.59190915 1.6368752e-11 1.8455833e-11    109.67747    109.67747    109.67747    1319326.6 
 5035007            0   -95250.709 -6.4284347e-05 -8.2972497e-05 -7.8688637e-05 -3.1191906e-05   0.59190915 1.3120025e-11 -3.2810849e-12    109.67747    109.67747    109.67747    1319326.6 
Loop time of 18.6711 on 16 procs (16 MPI x 1 OpenMP) for 2683 steps with 12288 atoms

Minimization stats:
  Stopping criterion = force tolerance
  Energy initial, next-to-last, final = 
         -95250.708578     -95250.7086196     -95250.7086196
  Force two-norm initial, final = 0.0872903 9.93669e-11
  Force max component initial, final = 0.00159258 3.11999e-12
  Final line search alpha, max atom move = 1 3.11999e-12
  Iterations, force evaluations = 2683 5366

Pair  time (%) = 17.7514 (95.0744)
Neigh time (%) = 0 (0)
Comm  time (%) = 0.650253 (3.48268)
Outpt time (%) = 0.0164327 (0.0880114)
Other time (%) = 0.252976 (1.35491)

Nlocal:    768 ave 777 max 759 min
Histogram: 8 0 0 0 0 0 0 0 0 8
Nghost:    858.5 ave 861 max 856 min
Histogram: 8 0 0 0 0 0 0 0 0 8
Neighs:    0 ave 0 max 0 min
Histogram: 16 0 0 0 0 0 0 0 0 0
FullNghs:  46029 ave 46524 max 45534 min
Histogram: 8 0 0 0 0 0 0 0 0 8

Total # of neighbors = 736464
Ave neighs/atom = 59.9336
Neighbor list builds = 0
Dangerous builds = 0

# Obtain new stress tensor

variable tmp equal pxx
variable pxx1 equal ${tmp}
variable pxx1 equal -8.29724970219313e-05
variable tmp equal pyy
variable pyy1 equal ${tmp}
variable pyy1 equal -7.86886367308726e-05
variable tmp equal pzz
variable pzz1 equal ${tmp}
variable pzz1 equal -3.11919062136169e-05
variable tmp equal pxy
variable pxy1 equal ${tmp}
variable pxy1 equal 0.59190914661982
variable tmp equal pxz
variable pxz1 equal ${tmp}
variable pxz1 equal 1.31200251121831e-11
variable tmp equal pyz
variable pyz1 equal ${tmp}
variable pyz1 equal -3.28108487267848e-12

# Compute elastic constant from pressure tensor

variable C1neg equal ${d1}
variable C1neg equal -0.000829662577920477
variable C2neg equal ${d2}
variable C2neg equal -0.000786891223486913
variable C3neg equal ${d3}
variable C3neg equal -0.000311955579165485
variable C4neg equal ${d4}
variable C4neg equal 7.75604672959105e-08
variable C5neg equal ${d5}
variable C5neg equal -3.06380845548853e-08
variable C6neg equal ${d6}
variable C6neg equal 5.91909146271593

# Reset box and simulation parameters

clear
  using 1 OpenMP thread(s) per MPI task
box tilt large
read_restart restart.equil
  triclinic box = (-54.8387 -54.8387 -54.8387) to (54.8387 54.8387 54.8387) with tilt (0 0 0)
  4 by 2 by 2 MPI processor grid
  12288 atoms
include potential.mod
# NOTE: This script can be modified for different pair styles
# See in.elastic for more info.

# Choose potential
pair_style     rebo
pair_coeff     * * CH.airebo  C
Reading potential file CH.airebo with DATE: 2011-10-25

#pair_style     lcbop
#pair_coeff     C.lcbop
#pair_style     tersoff
#pair_coeff     BNC.tersoff


# Setup neighbor style
neighbor 1.0 nsq
neigh_modify once no every 1 delay 0 check yes

# Setup minimization style
min_style	     cg
min_modify	     dmax ${dmax} line quadratic
min_modify	     dmax 0.01 line quadratic

# Setup output
thermo		500
thermo_style custom step temp pe press pxx pyy pzz pxy pxz pyz lx ly lz vol
thermo_modify norm no


# Output
dump            1 all xtc 100 traj.xtc
dump            2 all xyz 2000 relaxed.xyz
#dump            4 all atom 10 dump.atom

# Positive deformation

variable delta equal ${up}*${len0}
variable delta equal 1.0e-5*${len0}
variable delta equal 1.0e-5*109.677474052508
variable deltaxy equal ${up}*xy
variable deltaxy equal 1.0e-5*xy
variable deltaxz equal ${up}*xz
variable deltaxz equal 1.0e-5*xz
variable deltayz equal ${up}*yz
variable deltayz equal 1.0e-5*yz
if "${dir} == 1" then    "change_box all x delta 0 ${delta} xy delta ${deltaxy} xz delta ${deltaxz} remap units box"
if "${dir} == 2" then    "change_box all y delta 0 ${delta} yz delta ${deltayz} remap units box"
if "${dir} == 3" then    "change_box all z delta 0 ${delta} remap units box"
if "${dir} == 4" then    "change_box all yz delta ${delta} remap units box"
if "${dir} == 5" then    "change_box all xz delta ${delta} remap units box"
if "${dir} == 6" then    "change_box all xy delta ${delta} remap units box"
change_box all xy delta ${delta} remap units box
change_box all xy delta 0.00109677474052508 remap units box
  triclinic box = (-54.8387 -54.8387 -54.8387) to (54.8387 54.8387 54.8387) with tilt (0.00109677 0 0)

# Relax atoms positions

minimize ${etol} ${ftol} ${maxiter} ${maxeval}
minimize 0 ${ftol} ${maxiter} ${maxeval}
minimize 0 1e-10 ${maxiter} ${maxeval}
minimize 0 1e-10 10000000 ${maxeval}
minimize 0 1e-10 10000000 10000000
Neighbor list info ...
  1 neighbor list requests
  update every 1 steps, delay 0 steps, check yes
  master list distance cutoff = 7
Memory usage per processor = 3.96116 Mbytes
Step Temp PotEng Press Pxx Pyy Pzz Pxy Pxz Pyz Lx Ly Lz Volume 
 5032324            0   -95250.709 0.0010410491  0.004588374 0.0084111392 -0.0098763658   -2.2973014 -0.018779738 -0.012103705    109.67747    109.67747    109.67747    1319326.6 
 5032500            0   -95250.709 -0.00013411249 0.00067470417 -0.00071393914 -0.0003631025  -0.72179508 -2.1303365e-05 -0.0001020486    109.67747    109.67747    109.67747    1319326.6 
 5033000            0   -95250.709 -6.475483e-05 -7.3883285e-05 -9.5493987e-05 -2.4887219e-05  -0.59200951 1.145156e-05 1.6800994e-07    109.67747    109.67747    109.67747    1319326.6 
 5033500            0   -95250.709 -6.5596697e-05 -8.3423276e-05 -8.3009587e-05 -3.0357229e-05  -0.59191529 9.8249307e-07 1.938658e-06    109.67747    109.67747    109.67747    1319326.6 
 5034000            0   -95250.709 -6.6269161e-05 -8.5049292e-05 -8.0464216e-05 -3.3293974e-05  -0.59190916 -2.3888399e-08 2.534546e-08    109.67747    109.67747    109.67747    1319326.6 
 5034500            0   -95250.709 -6.3891111e-05 -8.2565412e-05 -7.8330853e-05 -3.0777069e-05  -0.59190916 -3.9424791e-10 -6.9575879e-10    109.67747    109.67747    109.67747    1319326.6 
 5034998            0   -95250.709 -6.4285864e-05 -8.297394e-05 -7.8690355e-05 -3.1193297e-05  -0.59190915 -5.0974382e-12 -1.2896756e-11    109.67747    109.67747    109.67747    1319326.6 
Loop time of 18.5521 on 16 procs (16 MPI x 1 OpenMP) for 2674 steps with 12288 atoms

Minimization stats:
  Stopping criterion = force tolerance
  Energy initial, next-to-last, final = 
        -95250.7085781     -95250.7086196     -95250.7086196
  Force two-norm initial, final = 0.0870975 9.94744e-11
  Force max component initial, final = 0.00169907 3.93272e-12
  Final line search alpha, max atom move = 1 3.93272e-12
  Iterations, force evaluations = 2674 5348

Pair  time (%) = 17.7098 (95.4599)
Neigh time (%) = 0 (0)
Comm  time (%) = 0.602639 (3.24836)
Outpt time (%) = 0.0152593 (0.0822513)
Other time (%) = 0.224377 (1.20945)

Nlocal:    768 ave 777 max 759 min
Histogram: 8 0 0 0 0 0 0 0 0 8
Nghost:    858.5 ave 861 max 856 min
Histogram: 8 0 0 0 0 0 0 0 0 8
Neighs:    0 ave 0 max 0 min
Histogram: 16 0 0 0 0 0 0 0 0 0
FullNghs:  46029 ave 46524 max 45534 min
Histogram: 8 0 0 0 0 0 0 0 0 8

Total # of neighbors = 736464
Ave neighs/atom = 59.9336
Neighbor list builds = 0
Dangerous builds = 0

# Obtain new stress tensor

variable tmp equal pe
variable e1 equal ${tmp}
variable e1 equal -95250.7086196279
variable tmp equal press
variable p1 equal ${tmp}
variable p1 equal -6.42858643970348e-05
variable tmp equal pxx
variable pxx1 equal ${tmp}
variable pxx1 equal -8.29739402937237e-05
variable tmp equal pyy
variable pyy1 equal ${tmp}
variable pyy1 equal -7.8690355404547e-05
variable tmp equal pzz
variable pzz1 equal ${tmp}
variable pzz1 equal -3.11932974928336e-05
variable tmp equal pxy
variable pxy1 equal ${tmp}
variable pxy1 equal -0.591909150391042
variable tmp equal pxz
variable pxz1 equal ${tmp}
variable pxz1 equal -5.09743823414809e-12
variable tmp equal pyz
variable pyz1 equal ${tmp}
variable pyz1 equal -1.28967560232139e-11

# Compute elastic constant from pressure tensor

variable C1pos equal ${d1}
variable C1pos equal 0.000829677010638401
variable C2pos equal ${d2}
variable C2pos equal 0.000786908410223657
variable C3pos equal ${d3}
variable C3pos equal 0.000311969491957652
variable C4pos equal ${d4}
variable C4pos equal -7.74643105844052e-08
variable C5pos equal ${d5}
variable C5pos equal 3.08202591883486e-08
variable C6pos equal ${d6}
variable C6pos equal 5.91909150739268

# Combine positive and negative

variable C1${dir} equal 0.5*(${C1neg}+${C1pos})
variable C16 equal 0.5*(${C1neg}+${C1pos})
variable C16 equal 0.5*(-0.000829662577920477+${C1pos})
variable C16 equal 0.5*(-0.000829662577920477+0.000829677010638401)
variable C2${dir} equal 0.5*(${C2neg}+${C2pos})
variable C26 equal 0.5*(${C2neg}+${C2pos})
variable C26 equal 0.5*(-0.000786891223486913+${C2pos})
variable C26 equal 0.5*(-0.000786891223486913+0.000786908410223657)
variable C3${dir} equal 0.5*(${C3neg}+${C3pos})
variable C36 equal 0.5*(${C3neg}+${C3pos})
variable C36 equal 0.5*(-0.000311955579165485+${C3pos})
variable C36 equal 0.5*(-0.000311955579165485+0.000311969491957652)
variable C4${dir} equal 0.5*(${C4neg}+${C4pos})
variable C46 equal 0.5*(${C4neg}+${C4pos})
variable C46 equal 0.5*(7.75604672959105e-08+${C4pos})
variable C46 equal 0.5*(7.75604672959105e-08+-7.74643105844052e-08)
variable C5${dir} equal 0.5*(${C5neg}+${C5pos})
variable C56 equal 0.5*(${C5neg}+${C5pos})
variable C56 equal 0.5*(-3.06380845548853e-08+${C5pos})
variable C56 equal 0.5*(-3.06380845548853e-08+3.08202591883486e-08)
variable C6${dir} equal 0.5*(${C6neg}+${C6pos})
variable C66 equal 0.5*(${C6neg}+${C6pos})
variable C66 equal 0.5*(5.91909146271593+${C6pos})
variable C66 equal 0.5*(5.91909146271593+5.91909150739268)

# Delete dir to make sure it is not reused

variable dir delete

# Output final values

variable C11all equal ${C11}
variable C11all equal 3.61254310058337
variable C22all equal ${C22}
variable C22all equal 3.61254311558851
variable C33all equal ${C33}
variable C33all equal 3.61254312365289

variable C12all equal 0.5*(${C12}+${C21})
variable C12all equal 0.5*(-0.0252160827882204+${C21})
variable C12all equal 0.5*(-0.0252160827882204+-0.0252160895053812)
variable C13all equal 0.5*(${C13}+${C31})
variable C13all equal 0.5*(-0.0252160734176415+${C31})
variable C13all equal 0.5*(-0.0252160734176415+-0.0252160957892328)
variable C23all equal 0.5*(${C23}+${C32})
variable C23all equal 0.5*(-0.0252160749544789+${C32})
variable C23all equal 0.5*(-0.0252160749544789+-0.0252160771552531)

variable C44all equal ${C44}
variable C44all equal 5.91909147625494
variable C55all equal ${C55}
variable C55all equal 5.91909159112126
variable C66all equal ${C66}
variable C66all equal 5.91909148505431

variable C14all equal 0.5*(${C14}+${C41})
variable C14all equal 0.5*(-3.16804815548937e-09+${C41})
variable C14all equal 0.5*(-3.16804815548937e-09+-7.8189900264185e-09)
variable C15all equal 0.5*(${C15}+${C51})
variable C15all equal 0.5*(-4.39568299348634e-09+${C51})
variable C15all equal 0.5*(-4.39568299348634e-09+-9.39484471122435e-09)
variable C16all equal 0.5*(${C16}+${C61})
variable C16all equal 0.5*(7.21635896199814e-09+${C61})
variable C16all equal 0.5*(7.21635896199814e-09+-2.4613076656578e-09)

variable C24all equal 0.5*(${C24}+${C42})
variable C24all equal 0.5*(5.6872137798843e-10+${C42})
variable C24all equal 0.5*(5.6872137798843e-10+-6.73849005713349e-09)
variable C25all equal 0.5*(${C25}+${C52})
variable C25all equal 0.5*(-4.17585462199723e-09+${C52})
variable C25all equal 0.5*(-4.17585462199723e-09+-7.8300187704925e-09)
variable C26all equal 0.5*(${C26}+${C62})
variable C26all equal 0.5*(8.59336837203285e-09+${C62})
variable C26all equal 0.5*(8.59336837203285e-09+-6.8256327734735e-10)

variable C34all equal 0.5*(${C34}+${C43})
variable C34all equal 0.5*(-6.12210313477232e-10+${C43})
variable C34all equal 0.5*(-6.12210313477232e-10+-2.57269006816494e-10)
variable C35all equal 0.5*(${C35}+${C53})
variable C35all equal 0.5*(-2.63822089950063e-09+${C53})
variable C35all equal 0.5*(-2.63822089950063e-09+2.028379317172e-10)
variable C36all equal 0.5*(${C36}+${C63})
variable C36all equal 0.5*(6.95639608351735e-09+${C63})
variable C36all equal 0.5*(6.95639608351735e-09+8.97548317065551e-10)

variable C45all equal 0.5*(${C45}+${C54})
variable C45all equal 0.5*(-6.44069302484983e-11+${C54})
variable C45all equal 0.5*(-6.44069302484983e-11+-2.01589336852022e-11)
variable C46all equal 0.5*(${C46}+${C64})
variable C46all equal 0.5*(4.80783557526466e-11+${C64})
variable C46all equal 0.5*(4.80783557526466e-11+6.78597813164301e-11)
variable C56all equal 0.5*(${C56}+${C65})
variable C56all equal 0.5*(9.10873167316506e-11+${C65})
variable C56all equal 0.5*(9.10873167316506e-11+2.91916244367545e-10)

# Average moduli for cubic crystals

variable C11cubic equal (${C11all}+${C22all}+${C33all})/3.0
variable C11cubic equal (3.61254310058337+${C22all}+${C33all})/3.0
variable C11cubic equal (3.61254310058337+3.61254311558851+${C33all})/3.0
variable C11cubic equal (3.61254310058337+3.61254311558851+3.61254312365289)/3.0
variable C12cubic equal (${C12all}+${C13all}+${C23all})/3.0
variable C12cubic equal (-0.0252160861468008+${C13all}+${C23all})/3.0
variable C12cubic equal (-0.0252160861468008+-0.0252160846034372+${C23all})/3.0
variable C12cubic equal (-0.0252160861468008+-0.0252160846034372+-0.025216076054866)/3.0
variable C44cubic equal (${C44all}+${C55all}+${C66all})/3.0
variable C44cubic equal (5.91909147625494+${C55all}+${C66all})/3.0
variable C44cubic equal (5.91909147625494+5.91909159112126+${C66all})/3.0
variable C44cubic equal (5.91909147625494+5.91909159112126+5.91909148505431)/3.0

variable bulkmodulus equal (${C11cubic}+2*${C12cubic})/3.0
variable bulkmodulus equal (3.61254311327492+2*${C12cubic})/3.0
variable bulkmodulus equal (3.61254311327492+2*-0.025216082268368)/3.0
variable shearmodulus1 equal ${C44cubic}
variable shearmodulus1 equal 5.91909151747684
variable shearmodulus2 equal (${C11cubic}-${C12cubic})/2.0
variable shearmodulus2 equal (3.61254311327492-${C12cubic})/2.0
variable shearmodulus2 equal (3.61254311327492--0.025216082268368)/2.0
variable poissonratio equal 1.0/(1.0+${C11cubic}/${C12cubic})
variable poissonratio equal 1.0/(1.0+3.61254311327492/${C12cubic})
variable poissonratio equal 1.0/(1.0+3.61254311327492/-0.025216082268368)

# For Stillinger-Weber silicon, the analytical results
# are known to be (E. R. Cowley, 1988):
#               C11 = 151.4 GPa
#               C12 = 76.4 GPa
#               C44 = 56.4 GPa

print "========================================="
=========================================
print "Components of the Elastic Constant Tensor"
Components of the Elastic Constant Tensor
print "========================================="
=========================================

print "Elastic Constant C11all = ${C11all} ${cunits}"
Elastic Constant C11all = 3.61254310058337 GPa
print "Elastic Constant C22all = ${C22all} ${cunits}"
Elastic Constant C22all = 3.61254311558851 GPa
print "Elastic Constant C33all = ${C33all} ${cunits}"
Elastic Constant C33all = 3.61254312365289 GPa

print "Elastic Constant C12all = ${C12all} ${cunits}"
Elastic Constant C12all = -0.0252160861468008 GPa
print "Elastic Constant C13all = ${C13all} ${cunits}"
Elastic Constant C13all = -0.0252160846034372 GPa
print "Elastic Constant C23all = ${C23all} ${cunits}"
Elastic Constant C23all = -0.025216076054866 GPa

print "Elastic Constant C44all = ${C44all} ${cunits}"
Elastic Constant C44all = 5.91909147625494 GPa
print "Elastic Constant C55all = ${C55all} ${cunits}"
Elastic Constant C55all = 5.91909159112126 GPa
print "Elastic Constant C66all = ${C66all} ${cunits}"
Elastic Constant C66all = 5.91909148505431 GPa

print "Elastic Constant C14all = ${C14all} ${cunits}"
Elastic Constant C14all = -5.49351909095393e-09 GPa
print "Elastic Constant C15all = ${C15all} ${cunits}"
Elastic Constant C15all = -6.89526385235535e-09 GPa
print "Elastic Constant C16all = ${C16all} ${cunits}"
Elastic Constant C16all = 2.37752564817017e-09 GPa

print "Elastic Constant C24all = ${C24all} ${cunits}"
Elastic Constant C24all = -3.08488433957253e-09 GPa
print "Elastic Constant C25all = ${C25all} ${cunits}"
Elastic Constant C25all = -6.00293669624487e-09 GPa
print "Elastic Constant C26all = ${C26all} ${cunits}"
Elastic Constant C26all = 3.95540254734275e-09 GPa

print "Elastic Constant C34all = ${C34all} ${cunits}"
Elastic Constant C34all = -4.34739660146863e-10 GPa
print "Elastic Constant C35all = ${C35all} ${cunits}"
Elastic Constant C35all = -1.21769148389172e-09 GPa
print "Elastic Constant C36all = ${C36all} ${cunits}"
Elastic Constant C36all = 3.92697220029145e-09 GPa

print "Elastic Constant C45all = ${C45all} ${cunits}"
Elastic Constant C45all = -4.22829319668503e-11 GPa
print "Elastic Constant C46all = ${C46all} ${cunits}"
Elastic Constant C46all = 5.79690685345384e-11 GPa
print "Elastic Constant C56all = ${C56all} ${cunits}"
Elastic Constant C56all = 1.91501780549598e-10 GPa

print "========================================="
=========================================
print "Average properties for a cubic crystal"
Average properties for a cubic crystal
print "========================================="
=========================================

print "Bulk Modulus = ${bulkmodulus} ${cunits}"
Bulk Modulus = 1.18737031624606 GPa
print "Shear Modulus 1 = ${shearmodulus1} ${cunits}"
Shear Modulus 1 = 5.91909151747684 GPa
print "Shear Modulus 2 = ${shearmodulus2} ${cunits}"
Shear Modulus 2 = 1.81887959777164 GPa
print "Poisson Ratio = ${poissonratio}"
Poisson Ratio = -0.00702921201507874
print "Deformation size: ${up}"
Deformation size: 1.0e-5

print "Lattice_type	lattice_constant	bulk_modulus	poisson	     c11	     c12         c44	" file elastic_constants.out
Lattice_type	lattice_constant	bulk_modulus	poisson	     c11	     c12         c44	
print "${lattype}    ${latconst}    ${bulkmodulus}     ${poissonratio}     ${C11all}     ${C12all}     ${C44all}" append elastic_constants.out
sc    10.0    1.18737031624606     -0.00702921201507874     3.61254310058337     -0.0252160861468008     5.91909147625494
