12288
Atoms. Timestep: 5034000
1 17.067 19.3081 44.9933
1 35.893 10.2564 38.4552
1 8.56479 24.9847 49.5802
1 20.2083 9.56692 49.5176
1 22.909 23.823 36.6444
1 29.9303 5.21294 46.4482
1 45.221 5.32143 34.6496
1 31.6316 19.1546 33.1439
1 21.61 16.6766 43.0175
1 15.5762 24.275 42.9215
1 14.424 17.3003 49.4777
1 38.5413 12.3766 34.0304
1 30.9168 12.347 39.9484
1 37.6612 5.43152 40.6691
1 4.6267 28.0171 52.1643
1 10.6316 20.4595 52.0753
1 11.2626 27.0653 45.1499
1 16.4874 12.8183 52.0734
1 22.1871 5.03238 52.1592
1 22.8031 11.5424 44.9732
1 18.3944 26.4471 38.6217
1 25.2234 19.6589 39.7613
1 25.0689 25.4353 31.6882
1 26.8642 2.65772 50.3532
1 34.4897 2.76851 44.4146
1 27.7606 9.44708 43.5578
1 42.0227 2.77432 38.417
1 49.7329 2.67978 32.5939
1 43.1315 9.8257 32.0631
1 29.5085 17.552 38.1928
1 36.2696 16.6574 31.2243
1 29.1849 23.1478 29.9802
1 14.8474 20.6669 46.0448
1 17.7995 16.8308 46.0407
1 18.6082 20.4847 42.9779
1 34.4411 9.04329 40.5013
1 38.2854 9.09286 37.5687
1 34.8767 12.5472 37.1878
1 10.6006 23.5045 48.3446
1 7.80506 27.4475 48.5386
1 7.61241 24.2172 52.0922
1 22.3862 8.19787 48.4747
1 19.3219 11.9311 48.2833
1 19.2864 8.89631 52.0784
1 25.2959 22.761 35.8105
1 21.8273 26.0195 35.2536
1 21.6345 22.8408 38.9241
1 31.4453 6.48572 44.4698
1 27.3931 6.17513 47.0961
1 30.7344 2.73991 47.4495
1 46.5084 6.33504 32.415
1 42.935 6.61076 35.6556
1 45.9037 2.75902 35.5532
1 32.7702 19.9602 30.6939
1 29.4782 20.5452 34.1516
1 32.7873 17.0546 34.5973
1 23.8648 15.3178 42.0082
1 20.9589 19.2242 42.0747
1 19.9846 15.4597 44.9862
1 17.8348 22.948 41.9129
1 14.828 26.7559 41.877
1 14.1044 23.1445 45.0062
1 16.4511 15.8096 48.2754
1 13.5177 19.6468 48.2809
1 13.6007 16.6698 52.0733
1 39.7131 13.2607 31.6627
1 36.1939 13.6005 34.9753
1 39.6264 10.1707 35.3804
1 32.4554 13.6843 38.0542
1 28.3077 13.2487 40.5369
1 31.931 10.0392 41.1982
1 39.1821 6.69095 38.7016
1 35.3663 6.66096 41.6611
1 38.2151 2.77565 41.3631
1 2.64116 29.5581 53.4875
1 5.79056 25.8457 53.4512
1 5.77773 28.9324 49.7963
1 8.88168 22.1434 53.4417
1 11.9034 18.3985 53.4408
1 11.475 21.1252 49.4948
1 9.18316 28.5148 46.3493
1 11.9453 24.5454 46.1256
1 12.6842 28.1613 43.0039
1 14.8357 14.5864 53.4413
1 17.6605 10.6908 53.4399
1 17.3239 13.4421 49.4784
1 20.3849 6.71075 53.4445
1 23.2337 2.76203 53.4908
1 23.4174 5.97366 49.8341
1 20.6509 12.9359 46.0261
1 23.7494 9.23528 46.27
1 24.1872 12.5794 42.8509
1 16.2102 27.8224 39.6953
1 19.2861 24.073 39.8216
1 19.6666 27.4193 36.337
1 22.6102 20.5381 40.207
1 25.9932 17.1692 40.9476
1 26.8463 21.2926 37.7092
1 23.0234 26.9123 32.8941
1 25.7386 22.9074 32.8039
1 27.0407 27.1578 30.2173
1 25.2889 1.34137 52.2879
1 29.0949 1.38466 49.2612
1 25.9086 4.95538 49.1252
1 32.8209 1.39588 46.1832
1 36.5027 1.39934 43.0746
1 33.8506 5.37757 43.6315
1 26.2713 8.23188 45.6016
1 30.4031 8.69271 43.1148
1 26.6636 11.466 42.086
1 40.2513 1.39947 40.059
1 44.1235 1.39873 37.1972
1 41.4626 5.41883 37.6878
1 48.0749 1.39066 34.414
1 52.0215 1.35284 31.5276
1 48.759 5.00883 31.378
1 41.9553 8.92837 34.4174
1 45.3684 8.4894 31.0225
1 41.9717 11.9465 30.6437
1 28.0157 16.1922 40.2261
1 31.5486 16.099 36.9229
1 28.8517 20.2577 36.9316
1 35.0908 15.7795 33.6034
1 38.5687 15.386 30.2449
1 35.1229 18.7615 29.7839
1 27.6953 21.8319 32.0041
1 31.6362 22.0708 29.2399
1 28.9554 26.0767 29.397
1 18.1917 18.6461 44.4875
1 16.6953 20.5515 44.4747
1 16.3274 18.7505 46.041
1 36.5943 10.8329 37.3918
1 34.6772 10.8152 38.8651
1 36.3853 9.09706 39.0663
1 7.56893 25.7313 50.216
1 9.01437 23.7959 50.1585
1 9.18344 25.4636 48.422
1 19.2101 10.3366 50.1196
1 20.6798 8.4203 50.1673
1 20.7973 10.0166 48.3301
1 21.755 24.4582 37.1145
1 23.5029 22.8094 37.4159
1 23.4456 24.2259 35.4136
1 29.1725 4.57932 47.4338
1 31.1467 4.66407 46.0394
1 29.4258 6.33663 45.7923
1 44.4816 4.7301 35.6769
1 46.3492 4.66371 34.1457
1 44.7564 6.50762 34.0696
1 31.1352 18.8046 34.4148
1 32.7873 18.5234 32.658
1 31.0013 20.1272 32.346
1 20.467 17.3286 43.5052
1 21.877 15.3741 43.461
1 22.4832 17.328 42.1242
1 14.4759 24.9561 43.4523
1 15.9531 23.0324 43.439
1 16.3098 24.8374 41.8735
1 13.4405 18.0654 50.1061
1 14.9073 16.1519 50.1055
1 14.9899 17.7308 48.2754
1 37.9162 11.8918 35.1837
1 39.7013 11.7531 33.554
1 37.9785 13.4581 33.3422
1 30.1169 11.614 40.8293
1 32.1857 11.8566 39.6167
1 30.4524 13.5587 39.4173
1 36.8836 4.77746 41.6267
1 38.7755 4.78322 40.1326
1 37.2811 6.68966 40.1919
1 5.59609 27.253 51.509
1 4.14844 29.1939 51.5909
1 4.23872 27.7078 53.467
1 11.5432 19.646 51.403
1 10.0489 21.5376 51.4095
1 10.4036 20.279 53.4409
1 12.3174 26.3546 44.5683
1 10.9261 28.333 44.6678
1 10.5488 26.521 46.2217
1 17.3612 11.9646 51.4011
1 15.9388 13.9099 51.4012
1 16.2637 12.6507 53.441
1 23.2715 4.33593 51.6235
1 21.6772 6.14954 51.4893
1 21.7752 4.72406 53.4598
1 23.9369 10.8707 44.5077
1 22.4276 12.7775 44.4219
1 22.1156 11.0121 46.069
1 19.5034 25.7693 38.1068
1 17.9541 27.6353 38.0288
1 17.7216 25.9271 39.7306
1 26.5717 19.2582 39.7622
1 24.7373 20.7569 38.9848
1 24.3159 18.8444 40.5468
1 25.8943 24.5415 30.9907
1 24.8371 26.7692 31.2802
1 24.4734 24.9601 32.8958
1 27.6422 3.30218 49.3922
1 25.6588 3.21047 50.7817
1 27.1946 1.36926 50.7663
1 35.2967 3.44903 43.5018
1 33.4231 3.43387 45.0197
1 34.6612 1.39829 44.6258
1 28.5403 10.1162 42.6066
1 26.4372 9.81977 43.8028
1 28.3252 8.42954 44.3267
1 42.8783 3.4507 37.547
1 40.9553 3.45653 39.0025
1 42.1731 1.39931 38.6108
1 50.4322 3.23025 31.5177
1 48.6127 3.3448 33.1117
1 50.0502 1.37661 32.9937
1 43.6698 10.2192 30.8348
1 42.0006 10.4799 32.5654
1 43.7016 8.75 32.7532
1 30.0744 18.0694 36.981
1 28.6123 18.2578 39.0202
1 29.7793 16.1869 38.5873
1 36.8542 17.0862 30.0268
1 35.1099 17.2796 31.7042
1 36.8437 15.597 31.935
1 30.0096 23.8629 29.0863
1 27.8378 23.4653 30.1888
1 29.7244 22.0586 30.7291
1 13.7631 21.3586 46.595
1 15.2358 19.4372 46.5819
1 15.578 21.2196 44.9889
1 16.7098 17.5202 46.5812
1 18.1637 15.5937 46.5797
1 18.5461 17.3943 44.9991
1 17.4616 21.1307 43.4583
1 18.9778 19.2373 43.4914
1 19.3947 21.0831 41.9869
1 33.6993 8.40888 41.5014
1 35.6575 8.48796 40.0929
1 33.9438 10.1952 39.8806
1 37.5757 8.51048 38.6233
1 39.4597 8.48691 37.1069
1 37.7851 10.2443 36.9491
1 34.1698 11.9625 38.243
1 36.0745 11.9656 36.7528
1 34.3579 13.6845 36.5554
1 11.6364 22.7812 47.7452
1 10.2095 24.7353 47.8118
1 10.0085 23.046 49.5246
1 8.82156 26.7149 47.9177
1 7.46344 28.7121 48.0555
1 7.157 26.9492 49.6719
1 8.55041 23.4282 51.4241
1 7.06059 25.3287 51.4535
1 7.341 23.9956 53.4443
1 23.5803 7.60898 48.0529
1 21.9007 9.33207 47.8144
1 21.7504 7.7086 49.6205
1 20.3666 11.1991 47.7154
1 18.9218 13.136 47.6945
1 18.7526 11.4956 49.4844
1 20.1903 8.05435 51.4265
1 18.7687 10.0059 51.405
1 19.0275 8.70724 53.4398
1 26.6174 22.428 35.5436
1 24.5654 23.5491 34.902
1 24.7717 22.3353 37.0656
1 22.9066 25.3119 34.7135
1 21.3441 27.1687 34.6161
1 21.2402 25.5735 36.4422
1 22.8566 22.2765 38.5351
1 21.1255 23.9669 38.2614
1 20.9141 22.2733 39.9788
1 32.1978 7.12845 43.4843
1 30.178 6.96641 44.7995
1 31.9089 5.31066 45.0646
1 28.1365 6.78286 46.0838
1 26.1038 6.62147 47.3883
1 27.9249 5.0908 47.794
1 31.5278 3.40723 46.5147
1 29.6019 3.3659 47.9743
1 30.9682 1.39172 47.7316
1 47.0662 6.75494 31.2056
1 45.3833 6.99635 32.9206
1 47.0307 5.20349 33.0523
1 43.6172 7.15418 34.5637
1 41.7881 7.24736 36.144
1 43.3556 5.38608 36.1857
1 46.7293 3.4069 34.6307
1 44.8089 3.4369 36.0981
1 46.0946 1.39665 35.8053
1 33.3743 20.4113 29.512
1 31.573 20.5392 31.1329
1 33.3596 18.935 31.4453
1 29.8016 20.7196 32.7894
1 28.5678 21.3963 34.7698
1 30.0936 19.5558 34.9805
1 33.3678 17.4792 33.3912
1 31.6732 17.7256 35.1312
1 33.3242 15.9451 35.2632
1 24.9057 14.5181 41.501
1 23.6919 16.708 41.7111
1 22.9663 14.6722 42.9213
1 22.1626 18.6228 41.6631
1 20.5767 20.4666 41.5481
1 20.1328 18.5983 43.0195
1 21.0783 14.7689 44.4524
1 19.6641 16.7264 44.4862
1 19.2416 14.8924 46.0319
1 18.9864 22.306 41.4422
1 17.4302 24.1705 41.3675
1 17.0792 22.3703 42.937
1 15.9186 26.0677 41.3369
1 14.4491 27.9939 41.3497
1 14.1121 26.2065 42.9444
1 15.2045 22.4637 44.4734
1 13.7417 24.3963 44.5016
1 13.381 22.5952 46.0687
1 17.4905 15.0805 47.6937
1 16.0361 17.01 47.6948
1 15.8844 15.3789 49.4775
1 14.5648 18.9286 47.6974
1 13.0929 20.8486 47.7105
1 12.9506 19.2128 49.4815
1 14.4932 15.8367 51.4008
1 13.0262 17.7471 51.4009
1 13.3811 16.5013 53.4411
1 40.2725 13.6702 30.4483
1 38.5689 13.9007 32.1539
1 40.2883 12.1952 32.3644
1 36.8158 14.0788 33.8168
1 35.0193 14.2083 35.4389
1 36.738 12.4954 35.6415
1 40.2582 10.6639 34.2346
1 38.4536 10.7799 35.8437
1 40.1445 9.03807 36.0196
1 33.1718 14.2806 37.0091
1 31.2506 14.257 38.4933
1 32.9433 12.5091 38.6399
1 29.2087 14.094 39.8263
1 26.9648 13.5559 40.8185
1 28.7936 12.0134 41.0625
1 32.6915 10.7066 40.2351
1 30.6337 10.4798 41.4747
1 32.4454 8.9144 41.8534
1 39.9191 7.2957 37.6798
1 38.0256 7.31063 39.1853
1 39.5612 5.43228 39.1783
1 36.1123 7.29383 40.6631
1 34.1731 7.23782 42.1024
1 35.7616 5.41545 42.1586
1 39.0506 3.45809 40.4793
1 37.1668 3.45614 41.9818
1 38.3621 1.39955 41.548
1 1.57202 30.2824 54.1205
1 3.3425 28.542 54.1452
1 3.11941 29.9104 52.2186
1 4.92552 26.6965 54.1416
1 6.49201 24.856 54.1406
1 6.10856 26.106 52.1168
1 4.75941 29.6579 50.4235
1 6.15945 27.6926 50.3093
1 6.44368 29.4396 48.6775
1 8.0485 23.016 54.1405
1 9.58581 21.1643 54.1407
1 9.12497 22.3394 52.0805
1 11.0993 19.2954 54.1408
1 12.5889 17.4084 54.141
1 12.1246 18.5708 52.0734
1 10.484 21.8797 50.1269
1 11.963 19.9722 50.1117
1 12.0498 21.5682 48.3008
1 8.15535 29.2395 46.9614
1 9.51356 27.2432 46.8241
1 9.88616 29.0516 45.2664
1 10.8926 25.2576 46.7097
1 12.3106 23.2962 46.6342
1 12.664 25.0927 45.0588
1 11.6305 28.8723 43.5869
1 13.0382 26.9053 43.5046
1 13.3822 28.6974 41.9173
1 14.0551 15.5035 54.1411
1 15.4963 13.5791 54.1411
1 15.0562 14.7534 52.0736
1 16.9073 11.6316 54.1407
1 18.2834 9.65759 54.14
1 17.8937 10.8634 52.0732
1 16.3548 14.2251 50.1063
1 17.7831 12.2827 50.1078
1 17.8902 13.8746 48.2763
1 19.6304 7.65946 54.1394
1 20.976 5.65025 54.1395
1 20.7001 6.93957 52.1004
1 22.3633 3.64863 54.142
1 23.7707 1.60507 54.1324
1 23.7675 3.20241 52.2738
1 22.2485 6.58576 50.2892
1 23.9343 4.87078 50.5159
1 24.1114 6.52569 48.7555
1 19.5858 13.6494 46.5756
1 21.0215 11.7069 46.588
1 21.3652 13.4944 44.9611
1 22.5666 9.84438 46.6965
1 24.2803 8.15366 46.9751
1 24.4481 9.76354 45.1847
1 23.1585 13.3447 43.3769
1 24.6377 11.3926 43.4251
1 24.9476 13.1477 41.8701
1 15.1335 28.521 40.2501
1 16.6185 26.6076 40.2545
1 16.8735 28.3342 38.5759
1 18.1484 24.7258 40.3056
1 19.7327 22.8858 40.4125
1 19.9734 24.607 38.729
1 18.5897 28.1249 36.8835
1 20.1363 26.2576 36.9603
1 20.2738 27.8833 35.1655
1 21.3716 21.0914 40.5758
1 23.0229 19.334 40.8022
1 23.4075 21.1872 39.2402
1 24.6525 17.5479 41.075
1 26.1691 14.7402 40.8735
1 26.9154 18.1929 40.6275
1 25.4712 21.4532 37.9693
1 27.6931 19.347 38.8746
1 27.4049 22.0684 36.6582
1 21.9437 27.6218 33.4359
1 23.467 25.7285 33.4996
1 23.6833 27.4178 31.7677
1 24.9176 23.7687 33.5485
1 27.3472 22.0208 34.3963
1 25.8689 23.1765 31.4093
1 25.6982 27.5184 30.4508
1 27.1067 24.6952 30.2436
1 27.9739 28.1462 29.7713
1 24.5267 0.708896 53.3124
1 26.3386 0.692618 51.6368
1 24.9183 2.59093 51.7907
1 28.23 0.697287 50.114
1 30.1014 0.698419 48.5783
1 28.8156 2.70983 48.922
1 25.1706 4.34811 50.1412
1 27.1725 4.46932 48.7904
1 25.3726 6.0322 48.4196
1 31.9527 0.698585 47.0248
1 33.7899 0.698455 45.4609
1 32.6234 2.75808 45.9432
1 35.6233 0.698172 43.8986
1 37.4682 0.69789 42.3547
1 36.3473 2.77365 42.881
1 33.0867 4.72347 44.6007
1 34.9935 4.75929 43.1229
1 33.4267 6.59566 43.0938
1 25.5448 7.6615 46.6465
1 27.576 7.81569 45.3325
1 25.7034 9.2542 44.844
1 29.6417 8.03807 44.0853
1 31.6959 8.256 42.8313
1 29.8686 9.76379 42.3995
1 25.8782 10.853 43.0588
1 28.0043 11.1797 41.8842
1 26.1685 12.582 41.4744
1 39.3396 0.697769 40.8453
1 41.2449 0.697885 39.3785
1 40.106 2.7758 39.8744
1 43.1835 0.698224 37.9531
1 45.1497 0.698684 36.5603
1 43.9592 2.7699 36.9826
1 40.6767 4.77924 38.6485
1 42.5833 4.76385 37.169
1 41.0701 6.66677 37.193
1 47.1355 0.699092 35.1854
1 49.1304 0.699038 33.8054
1 47.8371 2.7339 34.1015
1 51.1267 0.697079 32.393
1 48.1559 4.54171 32.5469
1 41.3066 8.4173 35.5454
1 43.1027 8.2911 33.9297
1 41.4126 10.0345 33.753
1 44.8284 8.09108 32.248
1 41.4253 11.5475 31.8671
1 26.7044 15.9564 40.7257
1 28.99 15.4633 39.543
1 28.1475 17.5952 40.185
1 30.862 15.5143 37.997
1 32.6811 15.4474 36.4038
1 31.0939 17.3042 36.3484
1 27.8226 20.2701 37.9267
1 29.6878 19.29 36.3427
1 28.6093 21.4389 36.1829
1 34.4788 15.3167 34.7746
1 36.2513 15.1568 33.1242
1 34.5227 16.8504 32.902
1 37.9953 14.9654 31.4496
1 34.5314 18.3267 30.977
1 26.8685 22.0965 33.1405
1 29.055 21.5013 31.8639
1 27.0654 22.5163 30.9184
1 30.9824 21.5558 30.3691
1 27.6762 25.8968 30.0048
1 -17.0659 -19.3081 44.9933
1 -17.0657 19.3083 -44.9935
1 -17.0657 19.3083 44.9935
1 -19.3084 -44.9938 -17.0667
1 -19.3084 -44.9938 17.0667
1 -19.3069 44.9931 -17.066
1 -19.3069 44.9931 17.066
1 -44.9929 -17.0661 -19.3079
1 -44.9929 -17.0661 19.3079
1 -44.9929 17.0666 -19.3085
1 -44.9929 17.0666 19.3085
1 44.994 -17.0666 -19.3085
1 44.994 -17.0666 19.3085
1 44.994 17.0661 -19.3079
1 44.994 17.0661 19.3079
1 19.308 -44.9931 -17.066
1 19.308 -44.9931 17.066
1 19.3095 44.9938 -17.0667
1 19.3095 44.9938 17.0667
1 17.0668 -19.3083 -44.9935
1 17.0668 -19.3083 44.9935
1 17.067 19.3081 -44.9933
1 -17.0659 -19.3081 -44.9933
1 -35.8919 -10.2564 38.4552
1 -35.892 10.2568 -38.4556
1 -35.892 10.2568 38.4556
1 -10.2566 -38.4557 -35.8927
1 -10.2566 -38.4557 35.8927
1 -10.2555 38.4552 -35.8922
1 -10.2555 38.4552 35.8922
1 -38.4553 -35.8925 -10.2566
1 -38.4553 -35.8925 10.2566
1 -38.4544 35.8924 -10.2565
1 -38.4544 35.8924 10.2565
1 38.4555 -35.8924 -10.2565
1 38.4555 -35.8924 10.2565
1 38.4564 35.8925 -10.2566
1 38.4564 35.8925 10.2566
1 10.2566 -38.4552 -35.8922
1 10.2566 -38.4552 35.8922
1 10.2577 38.4557 -35.8927
1 10.2577 38.4557 35.8927
1 35.8931 -10.2568 -38.4556
1 35.8931 -10.2568 38.4556
1 35.893 10.2564 -38.4552
1 -35.8919 -10.2564 -38.4552
1 -8.56369 -24.9847 49.5802
1 -8.56326 24.9846 -49.5802
1 -8.56326 24.9846 49.5802
1 -24.9847 -49.5804 -8.56415
1 -24.9847 -49.5804 8.56415
1 -24.9835 49.58 -8.5639
1 -24.9835 49.58 8.5639
1 -49.5796 -8.56374 -24.9844
1 -49.5796 -8.56374 24.9844
1 -49.5798 8.56431 -24.9849
1 -49.5798 8.56431 24.9849
1 49.5809 -8.56431 -24.9849
1 49.5809 -8.56431 24.9849
1 49.5807 8.56374 -24.9844
1 49.5807 8.56374 24.9844
1 24.9846 -49.58 -8.5639
1 24.9846 -49.58 8.5639
1 24.9858 49.5804 -8.56415
1 24.9858 49.5804 8.56415
1 8.56436 -24.9846 -49.5802
1 8.56436 -24.9846 49.5802
1 8.56479 24.9847 -49.5802
1 -8.56369 -24.9847 -49.5802
1 -20.2072 -9.56692 49.5176
1 -20.2071 9.56702 -49.5177
1 -20.2071 9.56702 49.5177
1 -9.5671 -49.5179 -20.2079
1 -9.5671 -49.5179 20.2079
1 -9.56574 49.5174 -20.2075
1 -9.56574 49.5174 20.2075
1 -49.5173 -20.2076 -9.56684
1 -49.5173 -20.2076 9.56684
1 -49.5169 20.2078 -9.5671
1 -49.5169 20.2078 9.5671
1 49.518 -20.2078 -9.5671
1 49.518 -20.2078 9.5671
1 49.5184 20.2076 -9.56684
1 49.5184 20.2076 9.56684
1 9.56684 -49.5174 -20.2075
1 9.56684 -49.5174 20.2075
1 9.5682 49.5179 -20.2079
1 9.5682 49.5179 20.2079
1 20.2082 -9.56702 -49.5177
1 20.2082 -9.56702 49.5177
1 20.2083 9.56692 -49.5176
1 -20.2072 -9.56692 -49.5176
1 -22.9079 -23.823 36.6444
1 -22.9077 23.8232 -36.6447
1 -22.9077 23.8232 36.6447
1 -23.8232 -36.6449 -22.9087
1 -23.8232 -36.6449 22.9087
1 -23.8219 36.6442 -22.908
1 -23.8219 36.6442 22.908
1 -36.6441 -22.9082 -23.823
1 -36.6441 -22.9082 23.823
1 -36.6439 22.9085 -23.8233
1 -36.6439 22.9085 23.8233
1 36.645 -22.9085 -23.8233
1 36.645 -22.9085 23.8233
1 36.6452 22.9082 -23.823
1 36.6452 22.9082 23.823
1 23.823 -36.6442 -22.908
1 23.823 -36.6442 22.908
1 23.8243 36.6449 -22.9087
1 23.8243 36.6449 22.9087
1 22.9088 -23.8232 -36.6447
1 22.9088 -23.8232 36.6447
1 22.909 23.823 -36.6444
1 -22.9079 -23.823 -36.6444
1 -29.9292 -5.21294 46.4482
1 -29.9292 5.21316 -46.4483
1 -29.9292 5.21316 46.4483
1 -5.21311 -46.4485 -29.93
1 -5.21311 -46.4485 29.93
1 -5.21189 46.448 -29.9295
1 -5.21189 46.448 29.9295
1 -46.448 -29.9297 -5.21304
1 -46.448 -29.9297 5.21304
1 -46.4474 29.9298 -5.21306
1 -46.4474 29.9298 5.21306
1 46.4484 -29.9298 -5.21306
1 46.4484 -29.9298 5.21306
1 46.4491 29.9297 -5.21304
1 46.4491 29.9297 5.21304
1 5.21299 -46.448 -29.9295
1 5.21299 -46.448 29.9295
1 5.21421 46.4485 -29.93
1 5.21421 46.4485 29.93
1 29.9303 -5.21316 -46.4483
1 29.9303 -5.21316 46.4483
1 29.9303 5.21294 -46.4482
1 -29.9292 -5.21294 -46.4482
1 -45.2199 -5.32143 34.6496
1 -45.2201 5.32191 -34.65
1 -45.2201 5.32191 34.65
1 -5.3215 -34.6499 -45.2207
1 -5.3215 -34.6499 45.2207
1 -5.32074 34.6497 -45.2204
1 -5.32074 34.6497 45.2204
1 -34.6498 -45.2206 -5.32172
1 -34.6498 -45.2206 5.32172
1 -34.6487 45.2205 -5.32162
1 -34.6487 45.2205 5.32162
1 34.6498 -45.2205 -5.32162
1 34.6498 -45.2205 5.32162
1 34.6508 45.2206 -5.32172
1 34.6508 45.2206 5.32172
1 5.32184 -34.6497 -45.2204
1 5.32184 -34.6497 45.2204
1 5.3226 34.6499 -45.2207
1 5.3226 34.6499 45.2207
1 45.2212 -5.32191 -34.65
1 45.2212 -5.32191 34.65
1 45.221 5.32143 -34.6496
1 -45.2199 -5.32143 -34.6496
1 -31.6305 -19.1546 33.1439
1 -31.6306 19.155 -33.1443
1 -31.6306 19.155 33.1443
1 -19.1547 -33.1443 -31.6313
1 -19.1547 -33.1443 31.6313
1 -19.1537 33.1439 -31.6309
1 -19.1537 33.1439 31.6309
1 -33.144 -31.6312 -19.1549
1 -33.144 -31.6312 19.1549
1 -33.1431 31.631 -19.1547
1 -33.1431 31.631 19.1547
1 33.1442 -31.631 -19.1547
1 33.1442 -31.631 19.1547
1 33.145 31.6312 -19.1549
1 33.145 31.6312 19.1549
1 19.1548 -33.1439 -31.6309
1 19.1548 -33.1439 31.6309
1 19.1558 33.1443 -31.6313
1 19.1558 33.1443 31.6313
1 31.6317 -19.155 -33.1443
1 31.6317 -19.155 33.1443
1 31.6316 19.1546 -33.1439
1 -31.6305 -19.1546 -33.1439
1 -21.6089 -16.6766 43.0175
1 -21.6088 16.6768 -43.0178
1 -21.6088 16.6768 43.0178
1 -16.6769 -43.018 -21.6098
1 -16.6769 -43.018 21.6098
1 -16.6754 43.0173 -21.609
1 -16.6754 43.0173 21.609
1 -43.0172 -21.6092 -16.6765
1 -43.0172 -21.6092 16.6765
1 -43.017 21.6096 -16.6769
1 -43.017 21.6096 16.6769
1 43.0181 -21.6096 -16.6769
1 43.0181 -21.6096 16.6769
1 43.0183 21.6092 -16.6765
1 43.0183 21.6092 16.6765
1 16.6765 -43.0173 -21.609
1 16.6765 -43.0173 21.609
1 16.678 43.018 -21.6098
1 16.678 43.018 21.6098
1 21.6099 -16.6768 -43.0178
1 21.6099 -16.6768 43.0178
1 21.61 16.6766 -43.0175
1 -21.6089 -16.6766 -43.0175
1 -15.5751 -24.275 42.9215
1 -15.5748 24.2751 -42.9217
1 -15.5748 24.2751 42.9217
1 -24.2753 -42.922 -15.5759
1 -24.2753 -42.922 15.5759
1 -24.2738 42.9212 -15.5752
1 -24.2738 42.9212 15.5752
1 -42.9209 -15.5752 -24.2748
1 -42.9209 -15.5752 24.2748
1 -42.9212 15.5759 -24.2754
1 -42.9212 15.5759 24.2754
1 42.9223 -15.5759 -24.2754
1 42.9223 -15.5759 24.2754
1 42.922 15.5752 -24.2748
1 42.922 15.5752 24.2748
1 24.2749 -42.9212 -15.5752
1 24.2749 -42.9212 15.5752
1 24.2764 42.922 -15.5759
1 24.2764 42.922 15.5759
1 15.5759 -24.2751 -42.9217
1 15.5759 -24.2751 42.9217
1 15.5762 24.275 -42.9215
1 -15.5751 -24.275 -42.9215
1 -14.4229 -17.3003 49.4777
1 -14.4226 17.3003 -49.4777
1 -14.4226 17.3003 49.4777
1 -17.3004 -49.4779 -14.4235
1 -17.3004 -49.4779 14.4235
1 -17.2991 49.4775 -14.4231
1 -17.2991 49.4775 14.4231
1 -49.4772 -14.4231 -17.3001
1 -49.4772 -14.4231 17.3001
1 -49.4771 14.4235 -17.3005
1 -49.4771 14.4235 17.3005
1 49.4782 -14.4235 -17.3005
1 49.4782 -14.4235 17.3005
1 49.4783 14.4231 -17.3001
1 49.4783 14.4231 17.3001
1 17.3002 -49.4775 -14.4231
1 17.3002 -49.4775 14.4231
1 17.3015 49.4779 -14.4235
1 17.3015 49.4779 14.4235
1 14.4237 -17.3003 -49.4777
1 14.4237 -17.3003 49.4777
1 14.424 17.3003 -49.4777
1 -14.4229 -17.3003 -49.4777
1 -38.5403 -12.3766 34.0304
1 -38.5405 12.3772 -34.031
1 -38.5405 12.3772 34.031
1 -12.3769 -34.0309 -38.5411
1 -12.3769 -34.0309 38.5411
1 -12.3759 34.0305 -38.5407
1 -12.3759 34.0305 38.5407
1 -34.0307 -38.5411 -12.3771
1 -34.0307 -38.5411 12.3771
1 -34.0296 38.5408 -12.3768
1 -34.0296 38.5408 12.3768
1 34.0307 -38.5408 -12.3768
1 34.0307 -38.5408 12.3768
1 34.0318 38.5411 -12.3771
1 34.0318 38.5411 12.3771
1 12.377 -34.0305 -38.5407
1 12.377 -34.0305 38.5407
1 12.378 34.0309 -38.5411
1 12.378 34.0309 38.5411
1 38.5416 -12.3772 -34.031
1 38.5416 -12.3772 34.031
1 38.5413 12.3766 -34.0304
1 -38.5403 -12.3766 -34.0304
1 -30.9157 -12.347 39.9484
1 -30.9158 12.3474 -39.9489
1 -30.9158 12.3474 39.9489
1 -12.3473 -39.949 -30.9166
1 -12.3473 -39.949 30.9166
1 -12.346 39.9483 -30.916
1 -12.346 39.9483 30.916
1 -39.9484 -30.9163 -12.3472
1 -39.9484 -30.9163 12.3472
1 -39.9478 30.9163 -12.3472
1 -39.9478 30.9163 12.3472
1 39.9489 -30.9163 -12.3472
1 39.9489 -30.9163 12.3472
1 39.9495 30.9163 -12.3472
1 39.9495 30.9163 12.3472
1 12.3471 -39.9483 -30.916
1 12.3471 -39.9483 30.916
1 12.3484 39.949 -30.9166
1 12.3484 39.949 30.9166
1 30.9169 -12.3474 -39.9489
1 30.9169 -12.3474 39.9489
1 30.9168 12.347 -39.9484
1 -30.9157 -12.347 -39.9484
1 -37.6601 -5.43152 40.6691
1 -37.6602 5.43184 -40.6693
1 -37.6602 5.43184 40.6693
1 -5.43161 -40.6693 -37.6609
1 -5.43161 -40.6693 37.6609
1 -5.43065 40.669 -37.6605
1 -5.43065 40.669 37.6605
1 -40.669 -37.6607 -5.4317
1 -40.669 -37.6607 5.4317
1 -40.6682 37.6607 -5.43166
1 -40.6682 37.6607 5.43166
1 40.6693 -37.6607 -5.43166
1 40.6693 -37.6607 5.43166
1 40.6701 37.6607 -5.4317
1 40.6701 37.6607 5.4317
1 5.43175 -40.669 -37.6605
1 5.43175 -40.669 37.6605
1 5.43271 40.6693 -37.6609
1 5.43271 40.6693 37.6609
1 37.6613 -5.43184 -40.6693
1 37.6613 -5.43184 40.6693
1 37.6612 5.43152 -40.6691
1 -37.6601 -5.43152 -40.6691
1 -4.6256 -28.0171 52.1643
1 -4.62515 28.017 -52.1643
1 -4.62515 28.017 52.1643
1 -28.0171 -52.1644 -4.62597
1 -28.0171 -52.1644 4.62597
1 -28.0159 52.1642 -4.62588
1 -28.0159 52.1642 4.62588
1 -52.1637 -4.62573 -28.0169
1 -52.1637 -4.62573 28.0169
1 -52.1639 4.62612 -28.0172
1 -52.1639 4.62612 28.0172
1 52.165 -4.62612 -28.0172
1 52.165 -4.62612 28.0172
1 52.1648 4.62573 -28.0169
1 52.1648 4.62573 28.0169
1 28.017 -52.1642 -4.62588
1 28.017 -52.1642 4.62588
1 28.0182 52.1644 -4.62597
1 28.0182 52.1644 4.62597
1 4.62625 -28.017 -52.1643
1 4.62625 -28.017 52.1643
1 4.6267 28.0171 -52.1643
1 -4.6256 -28.0171 -52.1643
1 -10.6305 -20.4595 52.0753
1 -10.6301 20.4595 -52.0753
1 -10.6301 20.4595 52.0753
1 -20.4595 -52.0755 -10.6309
1 -20.4595 -52.0755 10.6309
1 -20.4584 52.0752 -10.6307
1 -20.4584 52.0752 10.6307
1 -52.0748 -10.6307 -20.4594
1 -52.0748 -10.6307 20.4594
1 -52.0747 10.6309 -20.4596
1 -52.0747 10.6309 20.4596
1 52.0758 -10.6309 -20.4596
1 52.0758 -10.6309 20.4596
1 52.0759 10.6307 -20.4594
1 52.0759 10.6307 20.4594
1 20.4595 -52.0752 -10.6307
1 20.4595 -52.0752 10.6307
1 20.4606 52.0755 -10.6309
1 20.4606 52.0755 10.6309
1 10.6311 -20.4595 -52.0753
1 10.6311 -20.4595 52.0753
1 10.6316 20.4595 -52.0753
1 -10.6305 -20.4595 -52.0753
1 -11.2615 -27.0653 45.1499
1 -11.261 27.0652 -45.1499
1 -11.261 27.0652 45.1499
1 -27.0653 -45.1502 -11.262
1 -27.0653 -45.1502 11.262
1 -27.064 45.1497 -11.2615
1 -27.064 45.1497 11.2615
1 -45.1492 -11.2614 -27.0649
1 -45.1492 -11.2614 27.0649
1 -45.1496 11.2621 -27.0656
1 -45.1496 11.2621 27.0656
1 45.1507 -11.2621 -27.0656
1 45.1507 -11.2621 27.0656
1 45.1503 11.2614 -27.0649
1 45.1503 11.2614 27.0649
1 27.0651 -45.1497 -11.2615
1 27.0651 -45.1497 11.2615
1 27.0664 45.1502 -11.262
1 27.0664 45.1502 11.262
1 11.2621 -27.0652 -45.1499
1 11.2621 -27.0652 45.1499
1 11.2626 27.0653 -45.1499
1 -11.2615 -27.0653 -45.1499
1 -16.4863 -12.8183 52.0734
1 -16.486 12.8182 -52.0734
1 -16.486 12.8182 52.0734
1 -12.8183 -52.0735 -16.4868
1 -12.8183 -52.0735 16.4868
1 -12.8171 52.0732 -16.4866
1 -12.8171 52.0732 16.4866
1 -52.073 -16.4866 -12.8181
1 -52.073 -16.4866 12.8181
1 -52.0727 16.4868 -12.8183
1 -52.0727 16.4868 12.8183
1 52.0738 -16.4868 -12.8183
1 52.0738 -16.4868 12.8183
1 52.0741 16.4866 -12.8181
1 52.0741 16.4866 12.8181
1 12.8182 -52.0732 -16.4866
1 12.8182 -52.0732 16.4866
1 12.8194 52.0735 -16.4868
1 12.8194 52.0735 16.4868
1 16.4871 -12.8182 -52.0734
1 16.4871 -12.8182 52.0734
1 16.4874 12.8183 -52.0734
1 -16.4863 -12.8183 -52.0734
1 -22.186 -5.03238 52.1592
1 -22.1859 5.03246 -52.1593
1 -22.1859 5.03246 52.1593
1 -5.03252 -52.1594 -22.1866
1 -5.03252 -52.1594 22.1866
1 -5.03122 52.1591 -22.1863
1 -5.03122 52.1591 22.1863
1 -52.159 -22.1864 -5.03236
1 -52.159 -22.1864 5.03236
1 -52.1584 22.1865 -5.03248
1 -52.1584 22.1865 5.03248
1 52.1595 -22.1865 -5.03248
1 52.1595 -22.1865 5.03248
1 52.1601 22.1864 -5.03236
1 52.1601 22.1864 5.03236
1 5.03232 -52.1591 -22.1863
1 5.03232 -52.1591 22.1863
1 5.03362 52.1594 -22.1866
1 5.03362 52.1594 22.1866
1 22.187 -5.03246 -52.1593
1 22.187 -5.03246 52.1593
1 22.1871 5.03238 -52.1592
1 -22.186 -5.03238 -52.1592
1 -22.802 -11.5424 44.9732
1 -22.8021 11.5427 -44.9734
1 -22.8021 11.5427 44.9734
1 -11.5427 -44.9736 -22.8029
1 -11.5427 -44.9736 22.8029
1 -11.5412 44.973 -22.8023
1 -11.5412 44.973 22.8023
1 -44.9729 -22.8025 -11.5424
1 -44.9729 -22.8025 11.5424
1 -44.9726 22.8027 -11.5427
1 -44.9726 22.8027 11.5427
1 44.9737 -22.8027 -11.5427
1 44.9737 -22.8027 11.5427
1 44.974 22.8025 -11.5424
1 44.974 22.8025 11.5424
1 11.5423 -44.973 -22.8023
1 11.5423 -44.973 22.8023
1 11.5438 44.9736 -22.8029
1 11.5438 44.9736 22.8029
1 22.8032 -11.5427 -44.9734
1 22.8032 -11.5427 44.9734
1 22.8031 11.5424 -44.9732
1 -22.802 -11.5424 -44.9732
1 -18.3933 -26.4471 38.6217
1 -18.3929 26.4472 -38.6218
1 -18.3929 26.4472 38.6218
1 -26.4473 -38.6221 -18.394
1 -26.4473 -38.6221 18.394
1 -26.4459 38.6214 -18.3933
1 -26.4459 38.6214 18.3933
1 -38.6212 -18.3934 -26.4469
1 -38.6212 -18.3934 26.4469
1 -38.6213 18.3939 -26.4474
1 -38.6213 18.3939 26.4474
1 38.6224 -18.3939 -26.4474
1 38.6224 -18.3939 26.4474
1 38.6223 18.3934 -26.4469
1 38.6223 18.3934 26.4469
1 26.447 -38.6214 -18.3933
1 26.447 -38.6214 18.3933
1 26.4484 38.6221 -18.394
1 26.4484 38.6221 18.394
1 18.394 -26.4472 -38.6218
1 18.394 -26.4472 38.6218
1 18.3944 26.4471 -38.6217
1 -18.3933 -26.4471 -38.6217
1 -25.2223 -19.6589 39.7613
1 -25.2223 19.6593 -39.7617
1 -25.2223 19.6593 39.7617
1 -19.6593 -39.7618 -25.2232
1 -19.6593 -39.7618 25.2232
1 -19.6578 39.7611 -25.2224
1 -19.6578 39.7611 25.2224
1 -39.7611 -25.2227 -19.659
1 -39.7611 -25.2227 19.659
1 -39.7607 25.223 -19.6592
1 -39.7607 25.223 19.6592
1 39.7618 -25.223 -19.6592
1 39.7618 -25.223 19.6592
1 39.7622 25.2227 -19.659
1 39.7622 25.2227 19.659
1 19.6589 -39.7611 -25.2224
1 19.6589 -39.7611 25.2224
1 19.6604 39.7618 -25.2232
1 19.6604 39.7618 25.2232
1 25.2234 -19.6593 -39.7617
1 25.2234 -19.6593 39.7617
1 25.2234 19.6589 -39.7613
1 -25.2223 -19.6589 -39.7613
1 -25.0678 -25.4353 31.6882
1 -25.0675 25.4353 -31.6883
1 -25.0675 25.4353 31.6883
1 -25.4352 -31.6885 -25.0683
1 -25.4352 -31.6885 25.0683
1 -25.4343 31.6881 -25.068
1 -25.4343 31.6881 25.068
1 -31.6879 -25.0682 -25.4352
1 -31.6879 -25.0682 25.4352
1 -31.6875 25.0682 -25.4354
1 -31.6875 25.0682 25.4354
1 31.6886 -25.0682 -25.4354
1 31.6886 -25.0682 25.4354
1 31.689 25.0682 -25.4352
1 31.689 25.0682 25.4352
1 25.4354 -31.6881 -25.068
1 25.4354 -31.6881 25.068
1 25.4363 31.6885 -25.0683
1 25.4363 31.6885 25.0683
1 25.0686 -25.4353 -31.6883
1 25.0686 -25.4353 31.6883
1 25.0689 25.4353 -31.6882
1 -25.0678 -25.4353 -31.6882
1 -26.8631 -2.65772 50.3532
1 -26.8631 2.65786 -50.3532
1 -26.8631 2.65786 50.3532
1 -2.65787 -50.3534 -26.8638
1 -2.65787 -50.3534 26.8638
1 -2.65662 50.353 -26.8635
1 -2.65662 50.353 26.8635
1 -50.353 -26.8637 -2.65778
1 -50.353 -26.8637 2.65778
1 -50.3523 26.8637 -2.6578
1 -50.3523 26.8637 2.6578
1 50.3534 -26.8637 -2.6578
1 50.3534 -26.8637 2.6578
1 50.3541 26.8637 -2.65778
1 50.3541 26.8637 2.65778
1 2.65772 -50.353 -26.8635
1 2.65772 -50.353 26.8635
1 2.65896 50.3534 -26.8638
1 2.65896 50.3534 26.8638
1 26.8642 -2.65786 -50.3532
1 26.8642 -2.65786 50.3532
1 26.8642 2.65772 -50.3532
1 -26.8631 -2.65772 -50.3532
1 -34.4886 -2.76851 44.4146
1 -34.4886 2.76874 -44.4147
1 -34.4886 2.76874 44.4147
1 -2.76856 -44.4147 -34.4892
1 -2.76856 -44.4147 34.4892
1 -2.76759 44.4145 -34.489
1 -2.76759 44.4145 34.489
1 -44.4145 -34.4891 -2.76862
1 -44.4145 -34.4891 2.76862
1 -44.4137 34.4891 -2.76862
1 -44.4137 34.4891 2.76862
1 44.4148 -34.4891 -2.76862
1 44.4148 -34.4891 2.76862
1 44.4155 34.4891 -2.76862
1 44.4155 34.4891 2.76862
1 2.76868 -44.4145 -34.489
1 2.76868 -44.4145 34.489
1 2.76966 44.4147 -34.4892
1 2.76966 44.4147 34.4892
1 34.4897 -2.76874 -44.4147
1 34.4897 -2.76874 44.4147
1 34.4897 2.76851 -44.4146
1 -34.4886 -2.76851 -44.4146
1 -27.7595 -9.44708 43.5578
1 -27.7596 9.44742 -43.558
1 -27.7596 9.44742 43.558
1 -9.44739 -43.5582 -27.7604
1 -9.44739 -43.5582 27.7604
1 -9.44602 43.5576 -27.7598
1 -9.44602 43.5576 27.7598
1 -43.5577 -27.7601 -9.4472
1 -43.5577 -27.7601 9.4472
1 -43.5571 27.7601 -9.4473
1 -43.5571 27.7601 9.4473
1 43.5582 -27.7601 -9.4473
1 43.5582 -27.7601 9.4473
1 43.5587 27.7601 -9.4472
1 43.5587 27.7601 9.4472
1 9.44712 -43.5576 -27.7598
1 9.44712 -43.5576 27.7598
1 9.44848 43.5582 -27.7604
1 9.44848 43.5582 27.7604
1 27.7607 -9.44742 -43.558
1 27.7607 -9.44742 43.558
1 27.7606 9.44708 -43.5578
1 -27.7595 -9.44708 -43.5578
1 -42.0216 -2.77432 38.417
1 -42.0216 2.77467 -38.4172
1 -42.0216 2.77467 38.4172
1 -2.77434 -38.4172 -42.0222
1 -2.77434 -38.4172 42.0222
1 -2.77355 38.417 -42.0221
1 -2.77355 38.417 42.0221
1 -38.417 -42.0221 -2.7745
1 -38.417 -42.0221 2.7745
1 -38.4162 42.0222 -2.77449
1 -38.4162 42.0222 2.77449
1 38.4173 -42.0222 -2.77449
1 38.4173 -42.0222 2.77449
1 38.4181 42.0221 -2.7745
1 38.4181 42.0221 2.7745
1 2.77465 -38.417 -42.0221
1 2.77465 -38.417 42.0221
1 2.77544 38.4172 -42.0222
1 2.77544 38.4172 42.0222
1 42.0227 -2.77467 -38.4172
1 42.0227 -2.77467 38.4172
1 42.0227 2.77432 -38.417
1 -42.0216 -2.77432 -38.417
1 -49.7318 -2.67978 32.5939
1 -49.732 2.68017 -32.5942
1 -49.732 2.68017 32.5942
1 -2.67972 -32.5941 -49.7325
1 -2.67972 -32.5941 49.7325
1 -2.67914 32.594 -49.7324
1 -2.67914 32.594 49.7324
1 -32.594 -49.7325 -2.67999
1 -32.594 -49.7325 2.67999
1 -32.593 49.7324 -2.67996
1 -32.593 49.7324 2.67996
1 32.5941 -49.7324 -2.67996