read_data       ${fname}
read_data       P8-7_D3_1.xyz
  orthogonal box = (-29.1306 -29.1306 -29.1306) to (29.1306 29.1306 29.1306)
  2 by 2 by 4 MPI processor grid
  reading atoms ...
  3072 atoms
change_box 	all triclinic
  triclinic box = (-29.1306 -29.1306 -29.1306) to (29.1306 29.1306 29.1306) with tilt (0 0 0)

include potential.mod
# NOTE: This script can be modified for different pair styles
# See in.elastic for more info.

# Choose potential
pair_style     rebo
pair_coeff     * * CH.airebo  C
Reading potential file CH.airebo with DATE: 2011-10-25

#pair_style     lcbop
#pair_coeff     C.lcbop
#pair_style     tersoff
#pair_coeff     BNC.tersoff


# Setup neighbor style
neighbor 1.0 nsq
neigh_modify once no every 1 delay 0 check yes

# Setup minimization style
min_style	     cg
min_modify	     dmax ${dmax} line quadratic
min_modify	     dmax 0.01 line quadratic

# Setup output
thermo		500
thermo_style custom step temp pe press pxx pyy pzz pxy pxz pyz lx ly lz vol
thermo_modify norm no


# Output
dump            1 all xtc 100 traj.xtc
dump            2 all xyz 2000 relaxed.xyz
#dump            4 all atom 10 dump.atom

# Compute initial state
fix 3 all box/relax  aniso 0.0
minimize ${etol} ${ftol} ${maxiter} ${maxeval}
minimize 0 ${ftol} ${maxiter} ${maxeval}
minimize 0 1e-10 ${maxiter} ${maxeval}
minimize 0 1e-10 10000000 ${maxeval}
minimize 0 1e-10 10000000 10000000
Neighbor list info ...
  1 neighbor list requests
  update every 1 steps, delay 0 steps, check yes
  master list distance cutoff = 7
Memory usage per processor = 4.86071 Mbytes
Step Temp PotEng Press Pxx Pyy Pzz Pxy Pxz Pyz Lx Ly Lz Volume 
       0            0   -21157.979    33243.456    33243.458    33243.442    33243.469 -0.0020273833 0.0041511505 -0.00010697884     58.26118     58.26118     58.26118    197759.72 
     500            0   -22510.671   -17.909168   -17.909169   -17.909158   -17.909177 -0.0070508302 0.0082149111 -1.9759168e-05    58.738921    58.738921    58.738922     202664.6 
    1000            0    -22820.11   -62.577576   -62.577576   -62.577569   -62.577582 -0.010241824  0.010344259 8.5820008e-05    58.281155    58.281155    58.281155     197963.2 
    1500            0   -22882.024    84.609973    84.609972    84.609965     84.60998 -0.0090957864 0.0091570686 5.1839943e-05    58.222894    58.222894    58.222894     197370.1 
    2000            0   -22927.483    67.820753    67.820753    67.820747    67.820759 -0.0083577354 0.0084338743 1.445225e-05    58.199592    58.199592    58.199592    197133.23 
    2500            0   -22968.813    -41.32322   -41.323207   -41.323459   -41.322994 -0.0076291092 0.0077334847 -1.4336194e-05    58.189547    58.189547    58.189547    197031.16 
    3000            0   -23001.441    31.467743    31.467743     31.46774    31.467747 -0.0070292934 0.0071288378 -1.3924363e-05    58.178865    58.178865    58.178865    196922.67 
    3500            0   -23040.828    23.986873    23.986873    23.986871    23.986876 -0.0063629407 0.0064608667 -2.1196131e-05    58.173646    58.173646    58.173646    196869.68 
    4000            0   -23073.705    20.500391    20.500415    20.500391    20.500368 -0.0058455976 0.0059297941 -1.8191956e-05    58.171418    58.171417    58.171418    196847.06 
    4500            0   -23102.183    24.331011    24.330134    24.332464    24.330436 -0.0054118183 0.0054779083 -1.1491158e-05     58.17068     58.17068     58.17068    196839.58 
    5000            0    -23125.47    38.671906    38.671906    38.671903    38.671908 -0.0050629969  0.005111899 -4.4605294e-06    58.170558    58.170558    58.170558    196838.34 
    5500            0   -23142.759    59.734927    59.734927    59.734923    59.734931 -0.0048062264 0.0048420548 1.1126345e-06    58.170558    58.170558    58.170558    196838.34 
    6000            0   -23158.848    88.789321    88.789321    88.789316    88.789327 -0.0045683807 0.0045924488 6.2322432e-06    58.170558    58.170558    58.170558    196838.34 
    6500            0   -23179.167    91.674493    91.674456    91.674468    91.674556 -0.0042642996 0.0042748368 1.0806433e-05    58.172709    58.172708    58.172709    196860.17 
    7000            0   -23198.038    104.22715    104.19205    104.19203    104.29736 -0.0039784949  0.003978829 1.3802194e-05    58.174855    58.174855    58.174847    196881.94 
    7500            0   -23215.151    99.596327    99.100481    99.099935    100.58857 -0.0037193256 0.0037135082 1.4553106e-05    58.178082    58.178082    58.177959    196914.31 
    8000            0   -23230.677    93.078741    93.070836    93.070833    93.094555 -0.0034862716 0.0034772422 1.3537566e-05    58.181477    58.181477    58.181475     196949.2 
    8500            0   -23245.187    92.899203    92.851034    92.851048    92.995528 -0.0032712934  0.003260244 1.2084421e-05    58.184818    58.184818    58.184806    196983.09 
    9000            0    -23258.74    87.708148    87.401164    87.401283    88.321996 -0.0030721276 0.0030607194 9.6690814e-06    58.188552    58.188551    58.188475     197020.8 
    9500            0   -23271.469    88.158983     88.01891    88.018967    88.439072 -0.0028915285 0.0028788961 8.5503643e-06    58.192124    58.192124    58.192089    197057.23 
   10000            0   -23283.605    85.096812    84.910559    84.910636     85.46924 -0.0027254302 0.0027111985 8.0265971e-06    58.196041    58.196041    58.195994    197096.98 
   10500            0   -23295.257    83.513096     83.29378    83.293871    83.951636 -0.0025723553 0.0025563144 7.8037395e-06    58.200068    58.200067    58.200012    197137.87 
   11000            0   -23306.562    81.638075     81.41488     81.41497    82.084376 -0.0024314079 0.0024135244 7.8652967e-06    58.204313    58.204313    58.204256    197181.01 
   11500            0    -23317.67    79.534906    79.297557    79.297649    80.009511 -0.0023003177  0.002280278 8.6028541e-06    58.208826    58.208826    58.208766    197226.87 
   12000            0    -23328.76    77.330282    77.070489    77.070591    77.849766 -0.0021792987 0.0021568426 9.4538708e-06    58.213678    58.213678    58.213612    197276.17 
   12500            0   -23340.666    73.959072    73.880033    74.123856    73.873328 -0.001359709 0.0013636275 -5.5172346e-06    58.217403    58.217382    58.217404     197314.2 
   13000            0   -23355.333    71.771589    71.761787    71.791741    71.761239 -0.0011602574 0.0011482251 8.6594836e-06     58.21986    58.219857     58.21986    197339.24 
   13500            0   -23391.166    114.15344    112.12922    118.31954    112.01157 -0.00063997597 0.00065626069 -1.9335697e-05     58.22166    58.221166     58.22167    197355.91 
   14000            0   -23404.725   -18.030365    9.3810822   -74.295734    10.823557 -0.00049606982 0.00050200636 -1.0294528e-05    58.222713    58.229279      58.2226    197390.14 
   14500            0   -23413.226   -29.565681   -34.080287   -20.304883   -34.311873 -0.00041333387 0.00042578498 -1.6439944e-05    58.221565    58.220479    58.221583    197352.97 
   15000            0    -23419.78    27.905177    19.521232    45.082528    19.111772 -0.00035973173 0.00037722337 -2.1299958e-05    58.215286    58.213265    58.215319       197286 
   15500            0    -23426.19   -51.443018   -54.172746   -45.892915   -54.263393 -0.00031454031  0.000335962 -2.4999603e-05    58.212632    58.211975     58.21264    197263.56 
   16000            0   -23432.171   -19.563297   -41.240186    24.355855   -41.805559 -0.00027975133 0.00030396357 -2.7543757e-05    58.206717    58.201496    58.206762    197188.09 
   16500            0   -23439.184    62.485548    52.100353    83.527656    51.828634 -0.00024801212 0.0002749811 -3.0299157e-05    58.193921    58.191413    58.193943    197067.18 
   17000            0   -23444.616   -7.3067712   -22.474956    23.497282    -22.94264 -0.00022892273 0.00025768592 -3.1943067e-05    58.189364    58.185684    58.189402    197016.98 
   17500            0   -23450.363   -55.051044   -52.096883   -61.040592   -52.015657 -0.0002137453 0.00024314508 -3.2468701e-05     58.18072    58.181438    58.180714    196943.92 
   18000            0   -23454.993    15.562004    5.1799692    36.296132    5.2099098 -0.0002053399 0.00023472264  -3.2409e-05    58.171027    58.168526    58.171025    196834.63 
   18500            0   -23460.398    -53.87418   -97.343705    32.956052   -97.234887 -0.00019862579 0.0002274026 -3.1529543e-05    58.166494    58.155996    58.166485    196761.53 
   19000            0    -23467.64    100.69082    120.60601     60.88995    120.57651 -0.00019397308 0.00022119609 -3.0291201e-05    58.140938    58.145758     58.14094     196554.1 
   19500            0   -23472.214    15.930458    57.452912   -67.089372    57.427834 -0.00019314602 0.00021873656 -2.8665716e-05    58.132936     58.14301    58.132939    196490.72 
   20000            0   -23476.599    -2.452021   -10.683193    14.001146   -10.674016 -0.00019280975 0.00021688391 -2.6948512e-05    58.128123    58.126123    58.128123    196401.12 
   20500            0   -23481.948    46.858929     72.82249   -5.0525098    72.806807 -0.00019504866 0.0002159359 -2.394919e-05    58.111283    58.117602    58.111285    196258.57 
   21000            0   -23486.308    14.206817   -2.6974609    48.017937   -2.7000251 -0.0001973066 0.00021550167 -2.112382e-05    58.105829    58.101706    58.105829    196168.05 
   21500            0   -23490.096   -4.3899156   -8.5194567    3.8691452   -8.5194353 -0.00019962553 0.00021542379 -1.874083e-05    58.096397    58.095388    58.096397    196083.05 
   22000            0   -23493.572     47.63148    58.415171    26.063678    58.415592 -0.00020205267 0.00021553822 -1.6735531e-05    58.084564    58.087198    58.084564    195975.55 
   22500            0   -23497.903  -0.85313256   -60.822567    31.019948    27.243222 -0.00020454596 0.00021537824 -1.4143193e-05    58.081348    58.073766    58.074086    195884.04 
   23000            0   -23502.291    15.176925    1.4212233    22.855306    21.254246 -0.00020772615 0.00021578573 -1.1605628e-05     58.06524    58.063442    58.063578    195759.48 
   23500            0   -23506.065    16.437517    3.1909005    23.799759    22.321891 -0.00021017352 0.00021603523 -9.737032e-06    58.054715    58.052984     58.05311    195653.46 
   24000            0   -23509.301   -47.391084    -42.29483   -50.287848   -49.590574 -0.00021231495 0.00021639553 -8.3041572e-06    58.046514    58.047185    58.047128    195586.13 
   24500            0   -23513.011   -25.632915   -38.664001   -19.003976   -19.230766 -0.00021437224 0.00021639018 -6.8050761e-06    58.036355    58.034699     58.03472    195468.04 
   25000            0   -23518.255    13.111175   -2.7756584   0.54298761    41.566196 -0.00021669232 0.0002161571 -5.4108423e-06     58.01913    58.018842    58.015289    195291.22 
   25500            0    -23522.24   -90.655734   -81.831345   -83.342157    -106.7937 -0.00021885001 0.00021630742 -4.5185587e-06    58.008443    58.008573    58.010609    195204.94 
   26000            0   -23528.893   -106.14864   -110.82291   -112.58187   -95.041139 -0.0002215455 0.00021489605 -3.2289962e-06    57.988165    57.988319     57.98679    194988.48 
   26500            0   -23532.368   -46.284506   -23.689976   -17.569907   -97.593634 -0.00022287619 0.0002133638 -2.1571645e-06    57.971318    57.970769    57.977929    194843.06 
   27000            0   -23535.907   -37.980172   -37.827623    -37.83194   -38.280952 -0.0002827042 0.0002733345 -3.7082304e-06    57.960222    57.960223    57.960261    194710.97 
   27500            0   -23539.484    100.78932    109.39652    109.82581    83.145614 -0.00032837224 0.00031866932 -6.9478012e-06    57.939993    57.939953    57.942391    194514.95 
   28000            0   -23542.453   -10.806204   -7.5404105   -7.4482223   -17.429978 -0.00034357323 0.00033299911 -9.067667e-06    57.933556    57.933547    57.934459    194445.21 
   28500            0   -23545.407    58.910796    53.095577    52.863353    70.773458 -0.00035275778 0.00033923914 -1.1213297e-05    57.919425    57.919446    57.917806    194294.61 
   29000            0   -23548.837    27.648111    35.807637    36.236135     10.90056 -0.00036172629 0.0003440967 -1.4201854e-05    57.905205    57.905165    57.907485     194164.4 
   29500            0   -23552.909     17.24058    11.715235    6.0869935    33.919512 -0.0003693637 0.00034349878 -1.7113433e-05    57.889508    57.890024    57.887473    193993.95 
   30000            0   -23555.963   -18.706052    12.501496    12.510242   -81.129894 -0.00037399625 0.00034197223 -2.1366006e-05    57.874342     57.87434    57.882944    193875.41 
   30500            0   -23559.015   -14.416907    26.654693    27.023628   -96.929041 -0.00037797108 0.00033642717 -2.5343785e-05    57.859647     57.85961    57.871174    193737.45 
   31000            0   -23561.827    34.434347    25.106122    25.065442    53.131476 -0.00038217778 0.00032532065 -2.5776496e-05    57.849585    57.849587    57.846929    193589.06 
   31500            0   -23565.371   -118.69745   -128.60757   -128.58795   -98.896835 -0.00038915808 0.00031273105 -3.0322343e-05    57.839967    57.839964    57.837149    193491.96 
   32000            0   -23568.231    74.594513    67.708576    67.722777    88.352185 -0.00039610797 0.00030048284 -3.7212794e-05    57.818016    57.818014    57.816058    193274.62 
   32500            0   -23571.875   -53.602892   -53.098498   -53.113453   -54.596724 -0.00040733264 0.00028301949 -4.8917705e-05    57.805563    57.805563    57.805702    193156.78 
   33000            0   -23575.351    81.610832    55.928833    56.970092    131.93357 -0.00042113364 0.00025855362 -6.320936e-05    57.785496    57.785396    57.778292    192930.83 
   33500            0   -23578.691   -85.903746   -88.890431   -88.793363   -80.027443 -0.00043930486 0.00023546298 -8.4746911e-05    57.774198    57.774187    57.773354    192839.21 
   34000            0   -23581.852    2.9908877    30.803229    29.760338   -51.590904 -0.00046297391 0.00020879886 -0.00011345011    57.751783    57.751881    57.759595    192644.08 
   34500            0   -23584.798    19.199408    14.627678    14.786162    28.184383 -0.0004894505 0.00016943517 -0.00014066899    57.739348    57.739331    57.738059    192488.95 
   35000            0   -23587.336   -1.1628513   -18.099739   -17.610398    32.221583 -0.000518498 0.00013084905 -0.00017137764    57.728478     57.72843    57.723702    192368.53 
   35500            0   -23590.535   -45.715172   -46.517479   -46.472159   -44.155879 -0.00056631224 7.6940349e-05 -0.00022384193    57.712357    57.712351     57.71213    192222.71 
   36000            0   -23593.726   -6.5977086   -28.563969   -27.205589    35.976432 -0.00062729283 7.123489e-07 -0.00028627094    57.696003    57.695873    57.689878    192039.29 
   36500            0   -23597.682    83.670055    87.825527    87.592116    75.592521 -0.00073291897 -0.00010977105 -0.00039743034    57.668646    57.668667    57.669803    191790.96 
   37000            0   -23600.037    69.443396    71.711603    71.559051    65.059535 -0.00081147627 -0.00019587997 -0.00047712511    57.656728    57.656741    57.657356    191670.29 
   37500            0   -23603.665    77.984698    95.522129    94.562034    43.869931 -0.00096690619 -0.00035489684 -0.00063417081    57.635051    57.635141    57.639942    191468.61 
   38000            0   -23606.463   -49.981998   -69.978415   -69.790766   -10.176813 -0.0011076559 -0.00052159808 -0.00077221766    57.628468    57.628449    57.622799    191367.58 
   38500            0   -23610.482   -6.5455578   -8.6164573   -8.6700595   -2.3501566 -0.0013842877 -0.00079845582 -0.0010466137    57.602161    57.602165    57.601565    191122.52 
   39000            0     -23613.2    29.761732    29.741003     29.74091    29.803282 -0.0016152844 -0.001033058 -0.0012732863    57.584755    57.584754    57.584747    190951.25 
   39500            0   -23617.708    16.521706    42.076737    40.026092   -32.537711 -0.002089993 -0.0014891287 -0.0017316034    57.556363    57.556555    57.563394     190692.9 
   40000            0   -23621.322    75.221653    58.819431    60.254649    106.59088 -0.0025311739 -0.0019697375 -0.0021661118    57.536056     57.53592    57.531563     190451.9 
   40500            0    -23625.35   -21.419125    -19.56877   -19.677195    -25.01141 -0.0030953257 -0.0025099108 -0.0027046133    57.513556    57.513565    57.514063    190245.57 
   41000            0   -23629.631    14.585529     23.54124    22.277252   -2.0619046 -0.0037410539 -0.0031353869 -0.0033198474    57.484258    57.484375    57.486642    189961.54 
   41500            0   -23633.184   -32.164282   -31.772323   -31.782117   -32.938404 -0.0042281538 -0.0036224352 -0.0037885029     57.46395    57.463948    57.464054    189752.37 
   42000            0   -23635.744    76.703485    72.960268    71.438552    85.711636 -0.0045591406 -0.0039383426 -0.0041493175    57.442725    57.442869    57.441535    189538.39 
   42500            0   -23638.269    27.250022    10.162983    18.599273    52.987809 -0.0036860379 -0.0031532871 -0.0032853132    57.429201    57.428333    57.424796    189390.61 
   43000            0   -23640.813    17.458154    9.3303564    13.270537     29.77357 -0.0038789716 -0.0033928895 -0.0034891732    57.412377    57.411972    57.410275    189233.33 
   43500            0   -23644.019   -12.604745    6.3502818     -3.19562   -40.968896 -0.0043431576 -0.0038927402 -0.003946014    57.390403    57.391383    57.395259     189043.6 
   44000            0   -23647.249    5.0372793    26.101513     16.68235   -27.672025 -0.0050292302 -0.0046050513 -0.004616814    57.368565    57.369531    57.374076       188830 
   44500            0   -23650.194   -9.3106154   -11.025429   -10.299799   -6.6066184 -0.0058482645 -0.0054419014 -0.0054203392    57.352738    57.352663    57.352284    188650.71 
   45000            0   -23654.171    37.656295    7.8570042    25.491816    79.620066 -0.007237487 -0.0068301363 -0.0067691167    57.327955    57.326154    57.320626       188378 
   45500            0   -23657.236    4.8630388    28.953034    13.740719   -28.104637 -0.0084484913 -0.0079975824 -0.007904233    57.304493    57.306044    57.310307    188200.96 
   46000            0   -23661.658   -22.636005   -19.803395   -19.873401    -28.23122 -0.010097688 -0.0095506538 -0.0094573888    57.279489    57.279496    57.280344    187933.39 
   46500            0   -23665.579   -40.333196   -75.042368   -74.285741    28.328522 -0.010969482 -0.010310831  -0.01025165    57.258048    57.257971    57.247583    187685.04 
   47000            0   -23669.378    34.047815    19.123039    19.381541    63.638865 -0.010696604 -0.0099088423 -0.0099164426    57.225588    57.225562      57.2211    187385.74 
   47500            0   -23672.462   -4.7283314    4.4419192    4.2450444   -22.871958 -0.0095983893 -0.0087661541 -0.0088229777    57.201729    57.201748    57.204473    187175.26 
   48000            0   -23676.219   -24.308491   -15.412173   -15.493947   -42.019354 -0.0075992135 -0.0067807262 -0.0068911818    57.172719    57.172726    57.175383    186890.33 
   48500            0   -23679.586    8.8459631    8.8744782    8.8736059    8.7898053 -0.0055623017 -0.004790408 -0.0049405752    57.143997    57.143996    57.144003     186600.1 
   49000            0    -23681.83    100.95074    70.867833    71.420245    160.56414 -0.0042417607 -0.0035154741 -0.0036872168    57.123497    57.123441    57.114548    186369.95 
   49500            0   -23684.532     23.28872    2.3446805     2.775291    64.746189 -0.0028059308 -0.0021212484 -0.0023137923    57.102986    57.102942    57.096766    186178.19 
   50000            0   -23690.285   -56.159159   -83.543335    -83.08946   -1.8446826 -0.0005392193 5.6969219e-05 -0.00016002975    57.056937    57.056892    57.048805     185721.9 
   50500            0   -23702.059   -2.3695952    13.253527    14.273466   -34.635779 0.0010249517 0.0014973156  0.001294323    56.943626    56.943556    56.948392    184659.29 
   51000            0    -23711.09    -105.0225   -68.600869   -87.038935   -159.42768 0.00081686366 0.0012169003 0.0010290674    56.860745    56.862552     56.86974    183873.92 
   51500            0   -23717.441    53.272591    88.172344    46.136557    25.508871 0.00053977227 0.00088942378 0.00075240655    56.789538    56.793714    56.795755    183182.71 
   52000            0   -23724.128    161.35382     129.0427    172.51179    182.50695 0.00028983297 0.00061512408 0.00046859074    56.719213    56.714918    56.713923    182438.79 
   52500            0   -23730.723    1.3464341    5.6137769   -1.0030959  -0.57137868 7.5808588e-05 0.00034658574 0.0002260675    56.645782    56.646419    56.646383    181765.82 
   53000            0   -23736.937   -7.3854713   -61.303139    50.431106   -11.284381 -3.9211944e-05 0.00020220185 9.7783008e-05    56.571611    56.560627    56.566686    180997.88 
   53500            0   -23742.141    25.676836   -4.2182983     7.100775    74.148032 -0.00019314643 7.1838996e-06 -8.6702061e-05    56.492398    56.491244    56.484718    180261.14 
   54000            0   -23745.838    -1.161872    -48.19106   -7.6934741    52.398918 -0.00013610343 4.6373718e-05 -4.1173174e-05    56.436591     56.43262    56.426733    179711.51 
   54500            0   -23750.044    1.4577602    1.3610136    1.4531894    1.5590777 -0.00014621082 2.1440301e-05 -6.6406696e-05    56.357126    56.357112    56.357104     178997.2 
   55000            0   -23754.077   0.35568535    1.7986639   -51.090454    50.358846 -0.00016289145 -1.0514432e-05 -0.00010091818    56.273395    56.278543    56.268663       178202 
   55500            0   -23756.911     59.69714     47.18974     70.27857     61.62311 -0.00010976619 1.0042435e-05 -6.3299503e-05    56.205516    56.203275    56.204113    177545.09 
   56000            0   -23759.415    3.0064716    -59.42093    81.957542   -13.517197 -9.3609338e-05 7.151763e-06 -5.9030344e-05    56.142523    56.128862    56.138079    176903.21 
   56500            0   -23761.963   -5.8476047   -6.2853746   -6.3600678   -4.8973716 -7.5001774e-05 -1.963044e-06 -5.9443446e-05    56.044855     56.04483    56.044755    176037.94 
   57000            0   -23763.356    3.2608369    12.334136    12.018478   -14.570103 -6.1090463e-05 -8.3906872e-06 -3.5854123e-05    55.969998    55.970015     55.97256    175341.97 
   57500            0   -23763.992   -1.4173289   -10.318944   -1.4479325    7.5148895 7.253038e-05 0.00013309366 -4.502289e-05    55.917792    55.916582    55.916091    174834.62 
   58000            0   -23764.282    7.0669213    18.759594   -5.5019119    7.9430814 0.00024087578 0.00014848882 5.7163498e-05    55.822553    55.824268    55.822758    173957.84 
   58500            0   -23764.318    2.4596298   -3.1349183    3.4361862    7.0776216 0.00029088851 0.00010640426 0.00022194452    55.887959    55.886825    55.886884    174557.13 
   59000            0    -23764.36    3.2365353   -2.1456895    0.5157015    11.339594 -0.0010168602 -0.00099346198 -0.00064187884    55.852767    55.853219    55.851467    174231.82 
   59500            0   -23764.392    7.4644738    10.986181     5.889809    5.5174314 0.00040850034 0.00035111364 0.00049408303    55.826267    55.827242    55.827436    173993.26 
   60000            0    -23764.43    4.3712944  -0.46161198    5.3942387    8.1812565 -0.00037880679 -0.00047735139 -0.00060302677    55.809161    55.808692    55.808515    173823.22 
   60500            0   -23764.464    3.6168731    5.7673934    2.6425319    2.4406939 -7.4074326e-05 -0.00011955274 -0.00012962814    55.842139    55.842176    55.842468    174136.17 
   61000            0   -23764.485   0.94747575   -1.1324696    2.2213647    1.7535322 -0.00039044417 -0.00031259631 -0.00023676865    55.833176    55.832948    55.833156    174050.42 
   61500            0   -23764.516    6.1394863    6.6451237    6.1262741     5.647061 7.5098069e-05 2.1595014e-05 -0.00012985735    55.779364    55.779306    55.779823    173549.67 
   62000            0   -23764.536     1.661912    4.6485259    1.9071143   -1.5699042 -8.0506872e-05 -0.00028647991 -0.0001361823    55.779181    55.779894    55.780467    173552.94 
   62500            0   -23764.568    1.7316132    2.4055638   -2.1063262    4.8956021 -1.2703208e-05 0.00040011278 0.00065924133    55.833537    55.833891    55.832969     174053.9 
   63000            0   -23764.587    2.3067361    4.3782515    2.0540537    0.4879031 0.0012884929 0.00081419952 0.0007879095    55.792021    55.792462    55.793415     173672.3 
   63500            0   -23764.599    1.0776021    2.6415132    3.3090849   -2.7177918 -5.4980357e-05 -0.00011217015 0.00012770548    55.764295    55.764614    55.765219    173411.67 
   64000            0   -23764.607    3.9494604    3.8682596    3.9722458    4.0078759 0.00026914555 0.00053861906 0.00079743741    55.770739    55.770505      55.7704    173466.15 
   64500            0   -23764.612    1.9099188    1.0162826    4.9186126  -0.20513866 -0.00033427204 -0.00072718071 -0.00089135322     55.77774    55.777646    55.778745     173536.1 
   65000            0   -23764.645      8.00981    12.285299    11.970785  -0.22665376 0.00017000131 7.4396478e-05 -6.1150623e-05      55.7851    55.785322    55.786432    173606.81 
   65500            0   -23764.669    3.4362478    8.4402329    3.8981247    -2.029614 -4.9319875e-05 -3.9641406e-05 3.9483949e-05     55.79547    55.795988    55.796456    173703.49 
   66000            0    -23764.68    9.0897875     10.57453    7.9684217    8.7264103 0.00048378009 0.00042769106 0.00012943692    55.817606    55.817179    55.818321    173906.52 
   66500            0   -23764.687    1.5930308   -3.7439225    1.4602579    7.0627569 -0.00050827781 -0.00066338416 -0.00063362556    55.822246    55.822101    55.821829    173947.24 
   67000            0   -23764.689   0.27366498  -0.77489378    1.8428935  -0.24700475   6.3967e-05 3.0827617e-05 -6.6933431e-05    55.823985    55.823815    55.824067    173964.97 
   67500            0   -23764.689    2.4869659    4.0342194    1.8590353    1.5676429 2.7518645e-05 -0.00026753312 -0.00040130707    55.827267    55.827483    55.827745     173998.1 
   68000            0   -23764.691   0.27107392   0.62747469  -0.23493651   0.42068357 0.00036980432 -3.8249896e-05 0.00042138706    55.817391    55.817499    55.817891     173905.5 
   68500            0   -23764.692    1.3489938     1.257008    1.4733706    1.3166029 -0.00017647482 -0.00057710426 -0.00052955077    55.815214    55.815531    55.815421     173884.9 
   69000            0   -23764.693   0.28200658   0.63533663   0.19594502   0.01473809 0.0024821357 0.0029528519 0.0031918507    55.814974    55.815021     55.81502    173881.31 
   69500            0   -23764.695    2.4245337    2.0561917    1.3375745     3.879835 -0.0092681663 -0.0097508415 -0.0066175046    55.805417    55.805316    55.804732    173789.27 
   70000            0   -23764.696  0.073031382   0.47123778  0.064911614  -0.31705525 -0.0022903105 -0.0016939432 -0.00023148122    55.805662    55.805589    55.805233    173792.44 
   70500            0   -23764.696   0.87097923   0.90900569    1.0271967   0.67673535 -0.0016124229 -0.0033272188 -0.0020770289    55.807068    55.806994    55.806925    173806.47 
   71000            0   -23764.696  0.096634953   0.12254046 -0.024230141   0.19159454 -0.0088027088 -0.019617573 -0.019418767    55.805918    55.806445    55.808255    173805.32 
   71500            0   -23764.697   0.66152992   0.38815705   0.56493314    1.0314996  0.020604401  0.014247633 0.0051668822    55.807423    55.808272    55.811202    173824.87 
   72000            0   -23764.697   0.65657589 -0.072433392    0.6425299    1.3996312 -0.024346482 -0.033871502 -0.027498079    55.810382    55.810722    55.813275    173848.18 
   72500            0   -23764.697  0.087104392   0.30197851  -0.23252552   0.19186019  0.026678746   0.05438733  0.049771503    55.816622    55.815728    55.812438     173880.6 
   73000            0   -23764.697  0.094620619   0.11616071  -0.29817605   0.46587719 -0.030555615 -0.014728227 9.5674291e-05    55.818169    55.816979    55.811029    173884.93 
   73500            0   -23764.697   0.13990654   0.16704268   0.22988125  0.022795681 -0.0087625153 -0.014355425 -0.0055581466    55.816732    55.815655    55.812521    173880.98 
   74000            0   -23764.698 -0.052740446  -0.12096753  0.012177635 -0.049431442 0.0050398305 0.00062061221 -0.00031886594    55.817221    55.816975    55.815747    173896.66 
   74500            0   -23764.698    1.5227036   0.37000886    1.7455269    2.4525749 -0.021866004 -0.015383075 -0.013438588    55.813893    55.814302    55.817581    173883.68 
   75000            0   -23764.698   0.90473366    0.3092439    1.1991374    1.2058197  0.008275763  0.004686022 -0.0013180687    55.810623    55.810934     55.81172    173844.75 
   75500            0   -23764.698   0.12481207   0.10928256   0.12667398   0.13847968 -0.003343404 -0.0041139547 0.00062790837     55.81118    55.811179     55.81093    173844.78 
   76000            0   -23764.698  0.052886091   0.24268848 -0.0098314907 -0.074198711 -0.0003750572 0.0028365852 -0.0017091873    55.811108     55.81089    55.810893    173843.54 
   76500            0   -23764.698  0.016274731   0.01765821  0.017986953   0.01317903 -0.0076542855 -0.0070357283 -0.0085673729    55.811357    55.811497    55.810637    173845.41 
   77000            0   -23764.698   0.25941877    0.2347768   0.27244296   0.27103655 -0.0034604173 -0.009698484 -0.0096993254     55.81123    55.811513    55.811725    173848.45 
   77500            0   -23764.698  0.052778349 -0.038557465  0.029379393   0.16751312 0.0083967875 -0.00011545974 0.0039930419    55.811032     55.81104    55.812815    173849.76 
   78000            0   -23764.698  0.048018616   0.15469734 -0.033418519  0.022777024 -0.0078984454 -0.029625318 -0.027389868    55.814223    55.813763    55.810204    173860.05 
   78500            0   -23764.699   0.39174337   0.43576359   0.36346576   0.37600078  0.022081368 0.0099351792  0.035489101    55.814529    55.814162     55.81087    173864.32 
   79000            0   -23764.699  0.039222761 -0.068381983  0.030396543   0.15565372 -0.012598376 -0.018959461 -0.024194102    55.813653    55.813171     55.81419    173868.85 
   79500            0   -23764.699  0.019522732 -0.036266878  0.058001026  0.036834048 -0.032385683 -0.032170974 -0.043004873    55.814102    55.814125     55.81459    173874.46 
   80000            0   -23764.699  0.065049128  0.060062472  0.074213036  0.060871877  0.014282661   0.01908007  0.018357063    55.814198    55.814229    55.814376    173874.42 
   80500            0   -23764.699   0.19171085   0.20455378   0.21598595   0.15459281  -0.04434378 -0.069815001 -0.072341594    55.813757    55.814051    55.812861    173867.77 
   81000            0   -23764.699   0.12806366   0.22897285 -0.077093966   0.23231209   0.09522474  0.042406407   0.16057379    55.813852    55.813588    55.811762     173863.2 
   81500            0   -23764.699   0.02150763 -0.036085059  0.076430777  0.024177172  -0.02163342 -0.072903001 -0.068080141    55.813745    55.813491    55.812224       173864 
   82000            0   -23764.699  0.030230349  -0.13674516  0.086136072   0.14130013 -0.019156588  0.017699416  0.020539555    55.812432    55.811816    55.811933    173853.79 
   82500            0   -23764.699  0.016766589 -0.011503021 -0.027078859  0.088881648  -0.01034775 8.340382e-05 -0.044576709    55.811818    55.812041    55.811972     173852.7 
   83000            0   -23764.699  0.013000621  0.013359369  0.013779202   0.01186329 0.0016437563 0.0027641502 0.0084721399    55.811769    55.812085    55.812201     173853.4 
   83500            0   -23764.699  0.095198167   0.18871817  0.040062377  0.056813952 0.0079623976 0.0085893589  0.012950616    55.812298    55.811675    55.811886    173852.79 
   84000            0   -23764.699  0.026576265  0.036507566 0.0097907339  0.033430496 -0.048577639 -0.036609798 -0.019493835    55.812594    55.812422    55.811974    173856.31 
   84500            0   -23764.699  0.073285227  0.022737428   0.19208458 0.0050336781 -0.018436824 -0.010036939   -0.0113701    55.812649    55.813003    55.812181    173858.94 
   85000            0   -23764.699  0.017919885  0.002982542  0.020018504  0.030758609 -0.0017986509 0.0084535898  0.065591283    55.812625    55.812842    55.812231    173858.52 
   85500            0   -23764.699  0.023634746  0.017241174  0.024518295   0.02914477 -0.0078943437  -0.02028455 -0.038831295    55.813144    55.812719    55.812789    173861.49 
   86000            0   -23764.699  0.031171321  0.012724544  0.055496353  0.025293067  0.030823978  0.031584463  0.034264364    55.813251    55.813204    55.813287    173864.88 
   86500            0   -23764.699  0.057604649 -0.0038367237  0.067305141   0.10934553 -0.0057725552 -0.0013158158 -0.0016228641    55.813014    55.813219    55.813487    173864.82 
   87000            0   -23764.699  0.014329709 -0.0082336214  0.065406286 -0.014183538 -0.003886909 -0.0030773448 -0.016416282    55.812883    55.813224    55.813411    173864.19 
   87500            0   -23764.699  0.058254364  0.077166758  0.059298448  0.038297886  0.023823762  0.032265167  0.055202772    55.813272    55.813086    55.813336    173864.73 
   88000            0   -23764.699 0.0053239268 -0.003900857  0.016476746 0.0033958917 0.0044969471 0.0042248158   0.01073919    55.813483    55.813294    55.813315    173865.98 
   88500            0   -23764.699 0.0036795252 -0.0024011985 0.0074665047 0.0059732695 -0.0018264002 -0.0044509821 -0.005855388    55.813369    55.813364    55.813289    173865.76 
   89000            0   -23764.699  0.022739768  0.035071258  0.029263091 0.0038849563  0.015474563  0.015633754  0.022973709    55.813207    55.813429    55.813227    173865.26 
   89500            0   -23764.699  0.049355246  0.051938247  0.048422406  0.047705084 -0.027543473 -0.048866161  -0.10696279     55.81304    55.813061     55.81322    173863.57 
   90000            0   -23764.699  0.031046179  0.026622818  0.083108781 -0.016593063  0.006125306 -0.0059992325 -0.032624358    55.813068    55.812706    55.813203     173862.5 
   90500            0   -23764.699  0.062216145  0.035104192  0.090642656  0.060901586  0.016525029   0.02513877  0.022810497    55.812701    55.812762    55.812999     173860.9 
   91000            0   -23764.699  0.062834154  0.068677001  0.064618868  0.055206593 -0.022076896 -0.017046167 -0.035164362    55.812524    55.812726    55.812804    173859.62 
   91500            0   -23764.699 0.0037161994 -0.0012697099 0.00017531841   0.01224299 0.0037189586   0.01519549   0.02693603    55.812542    55.812677    55.812756    173859.38 
   92000            0   -23764.699  0.008711591 0.0040918517 0.0023953776  0.019647544 -0.0033834794 -0.0028369641 0.0034015886    55.812717    55.812585    55.812686    173859.42 
   92500            0   -23764.699  -0.12000728  -0.11919813  -0.12021947  -0.12060423  0.003322298 0.0094021304  0.020009039    55.812627    55.812713     55.81263    173859.36 
   93000            0   -23764.699 -0.0018157205 -0.0013795376 -0.0020616643 -0.0020059597 -0.0028980402 -0.0041762739 0.0045990197    55.812795    55.812599    55.812779       173860 
   93500            0   -23764.699 -0.040589742 -0.029538168 -0.043560593 -0.048670466 0.0044597415 -0.0037170603 -0.016453486    55.812868    55.812844    55.812827    173861.13 
   94000            0   -23764.699 -0.0039232482 -0.00088348991 -0.010823471 -6.2783763e-05  0.023859983  0.023999793   0.01936279    55.812906    55.812944    55.812937    173861.91 
   94500            0   -23764.699 -0.0049375148 -0.0086963992 -0.00085105746 -0.0052650877 -0.0040364441 -0.010544995 -0.016873777    55.812923    55.812922    55.813076    173862.33 
   95000            0   -23764.699 -0.0042710245 -0.0071239132 -0.00054627288 -0.0051428875 -0.0025444927 -0.0057206316 0.0021423614    55.812999    55.812956    55.812966    173862.33 
   95500            0   -23764.699 -0.0030714428 -0.0022520761 -0.0049295648 -0.0020326874 -0.0017926581 0.00017732443  0.010849466    55.813022    55.813009    55.812916    173862.41 
   96000            0   -23764.699 -0.0086125181 -0.0089057225 -0.0093008398 -0.0076309921 -0.0092875837 -0.0074734705 -0.0057421269    55.813016    55.813017    55.812951    173862.52 
   96500            0   -23764.699 -0.0016142856 -0.0015426583 -0.0015855715 -0.0017146268 -0.00033945169 0.0046302364 0.0051383111    55.812975    55.812984    55.813007    173862.46 
   97000            0   -23764.699 -0.001365565 -0.0013740527 -0.0015241876 -0.0011984546 -0.008488811 -0.0085908609 -0.010614283    55.812957    55.812945    55.813032    173862.36 
   97500            0   -23764.699 -0.0042337967 -0.0042840482 -0.0032413221  -0.00517602 0.0070806202 0.0030863405 -0.0019905554    55.812935    55.812951    55.812992    173862.19 
   98000            0   -23764.699 -0.0044866837 -0.0048556855 -0.0043121075 -0.0042922582 0.0059856486 0.0013512879 -0.0013148826    55.812939    55.812946    55.812957    173862.08 
   98500            0   -23764.699 -0.0067123858 -0.017255909 -0.0016660992 -0.0012151496  0.032597909  0.023287074  0.012903784    55.812899    55.812905    55.812975    173861.88 
   99000            0   -23764.699 -0.015919403 -0.015867414 -0.010799368 -0.021091427  0.038296051  0.028610417  0.011587967      55.8128    55.812882    55.812961    173861.46 
   99500            0   -23764.699 -0.0028334794 -0.0032174538 -0.0021517868 -0.0031311976  0.034945521   0.01774513 0.0070723268    55.812793    55.812823    55.812886    173861.02 
  100000            0   -23764.699 -0.0013827594 -0.0013351939 -0.0014982386 -0.0013148457  0.036916204  0.022193665  0.015526415     55.81281    55.812806    55.812845     173860.9 
  100500            0   -23764.699 -0.0033484879 -0.0025722537 -0.0014406294 -0.0060325805  0.026611608  0.012880765 0.0043140866    55.812828    55.812826    55.812816    173860.92 
  101000            0   -23764.699 -0.0019162555 -0.0018375128 -0.0019061832 -0.0020050706  0.022187027  0.012922634 0.0044586016    55.812846    55.812838    55.812809    173860.99 
  101500            0   -23764.699 0.00016966238 0.0045695212 -0.0039667966 -9.3737453e-05   0.01184203 0.0080172588 0.00029607837    55.812839    55.812836    55.812815    173860.99 
  102000            0   -23764.699  0.015438163  0.050287102 -0.017260352  0.013287739 -0.014434671 -0.012542003 -0.0030903846     55.81283    55.812846    55.812871    173861.16 
  102500            0   -23764.699 0.0014007152 -0.0061903004 0.0093745833 0.0010178627 -0.027148548 -0.016221993 -0.0029823446    55.812879    55.812874    55.812889    173861.46 
  103000            0   -23764.699 0.0024151847 0.0020831763 0.0028121079 0.0023502698 -0.0096438883 -0.0047288531 -0.0039895787    55.812906      55.8129    55.812881     173861.6 
  103500            0   -23764.699  0.006993971  0.010016437 0.0027584847 0.0082069916 0.0063359461 0.0037759457 0.0010943968    55.812918    55.812909    55.812895    173861.71 
  104000            0   -23764.699 0.00020047921 0.00045926834 -0.00043905976 0.00058122906 0.0069967259 0.0035030828 0.0011811458    55.812907    55.812908    55.812913    173861.73 
  104500            0   -23764.699 0.00039137711 0.00026332309 0.00097119574 -6.0387493e-05 0.0038998796  0.002330204 0.0004541669    55.812908    55.812909     55.81291    173861.72 
  105000            0   -23764.699 0.0022108486 0.0022320522 0.0029823118 0.0014181819  -0.01023468 -0.0053104403 -0.003817544    55.812905      55.8129    55.812911    173861.69 
  105500            0   -23764.699 0.00099763206 0.00073622618 -0.0029215632 0.0051782332 -0.020279015 -0.011617955 -0.0051848768    55.812897    55.812897      55.8129    173861.62 
  106000            0   -23764.699 0.00056332127 0.00057157688 -0.00048637677 0.0016047637 -0.016179435 -0.0095860138 -0.00076969918    55.812894    55.812898    55.812887    173861.57 
  106500            0   -23764.699  0.004845965 0.0051116605   0.00612351 0.0033027244 -0.0053909707 -0.0035758333 0.0026325588     55.81289    55.812888    55.812886    173861.53 
  107000            0   -23764.699 0.00060500701 0.00043324505 0.00044865777 0.00093311821 0.0034443896 0.0025787327 0.0036239699    55.812885    55.812885    55.812883    173861.49 
  107500            0   -23764.699 0.0019121493 0.0026720536 0.0021640898 0.00090030447 0.0044799361 0.0028191681 0.00030107072    55.812884    55.812885    55.812883    173861.49 
  108000            0   -23764.699 0.0009705529 0.0026791683 0.00074228693 -0.0005097965 0.0033535026 0.0019476139 -0.00050345817    55.812884    55.812882    55.812888     173861.5 
  108500            0   -23764.699 0.0018731521 0.0035511151 0.00067683941 0.0013915017 -2.9594368e-05 -0.00035360097 0.00058141496    55.812885    55.812887    55.812887    173861.51 
  109000            0   -23764.699 0.00051542856 -0.00030117966  0.001456443 0.00039102235 -0.0023370174 -0.0015095691 0.00033820815    55.812888    55.812889    55.812888    173861.53 
  109500            0   -23764.699 0.0014754131 0.0016775107  0.001090272 0.0016584567 -0.003531255 -0.0012128168 -0.00014644319    55.812889    55.812887    55.812888    173861.53 
  110000            0   -23764.699 0.00027985808 0.00035490655 0.00026072387 0.00022394383 -0.0018307684 -0.00052032839 -0.0005120545    55.812894    55.812893     55.81289    173861.57 
  110500            0   -23764.699 0.00064167341 0.0018180502 -0.00066422652 0.00077119653 0.00052940365 -0.00018741367 -0.00042831115    55.812893    55.812893    55.812894    173861.57 
  111000            0   -23764.699 4.9408254e-05 -0.00016609819 0.00011997888 0.00019434408 -0.00027358048 -4.0331125e-05 -3.8033142e-05    55.812893    55.812893    55.812893    173861.58 
  111500            0   -23764.699 -0.00023304426 6.721909e-05 -0.0003018499 -0.00046450197 -0.00015339148 -2.9544625e-05 -2.9432654e-06    55.812893    55.812893    55.812893    173861.57 
  112000            0   -23764.699 2.9591218e-05 3.9499875e-05 1.6526087e-05 3.2747692e-05 4.8229086e-05 2.1966108e-05 6.9777097e-06    55.812892    55.812892    55.812892    173861.56 
  112500            0   -23764.699 4.3349714e-05 8.1887564e-05 -8.6158024e-05 0.0001343196 -3.1888443e-05 -2.934362e-05 -1.6358903e-05    55.812892    55.812892    55.812892    173861.56 
  113000            0   -23764.699 5.9611094e-07 8.3367843e-06 -1.3079623e-05 6.5311711e-06 -7.8166032e-06 -5.9289012e-06 -1.0071213e-05    55.812892    55.812892    55.812892    173861.56 
  113500            0   -23764.699 -1.9476621e-07 -2.3588644e-07 -5.4987826e-07 2.0146606e-07 2.9664289e-06 2.6985444e-06 -3.458988e-06    55.812892    55.812892    55.812892    173861.56 
  114000            0   -23764.699 2.989985e-06 -3.9512107e-08 5.7825543e-06 3.2269128e-06 -6.2142992e-06 -3.8068915e-06 -5.8278235e-06    55.812892    55.812892    55.812892    173861.56 
  114500            0   -23764.699 4.9546631e-07 4.1164435e-07 5.313122e-07 5.4344237e-07 -5.7799134e-06 -3.2267007e-06 -1.1852736e-06    55.812892    55.812892    55.812892    173861.56 
  115000            0   -23764.699 1.6127098e-07 1.348495e-07 2.0290109e-07 1.4606236e-07 1.5054365e-06 1.8446538e-06 1.3092632e-06    55.812892    55.812892    55.812892    173861.56 
  115500            0   -23764.699 -6.3547926e-07 -1.2936181e-06 -1.7166809e-06 1.1038612e-06 1.4226074e-06 1.2722402e-06 6.3461685e-07    55.812892    55.812892    55.812892    173861.56 
  116000            0   -23764.699 1.7054961e-08 9.0831086e-09  1.34417e-08 2.8640075e-08 1.6001193e-07 -1.218907e-07 5.1247338e-08    55.812892    55.812892    55.812892    173861.56 
  116500            0   -23764.699 1.8840026e-07 3.3943757e-07 8.0326477e-08 1.4543672e-07 -3.1932639e-07 -8.3639856e-08 1.8975446e-08    55.812892    55.812892    55.812892    173861.56 
  117000            0   -23764.699 1.051969e-08 -2.4285568e-08 2.5829987e-08 3.0014652e-08 -1.1580544e-07 -1.0786242e-07 -8.1917165e-08    55.812892    55.812892    55.812892    173861.56 
  117500            0   -23764.699 2.8234509e-08 4.6045378e-08 4.8899018e-08 -1.024087e-08 1.145861e-09 2.0156776e-08 -2.4687694e-08    55.812892    55.812892    55.812892    173861.56 
  118000            0   -23764.699 8.2549262e-09 -1.1265793e-08 1.7989229e-08 1.8041342e-08 8.1966179e-08 3.8797874e-08 -1.3337835e-09    55.812892    55.812892    55.812892    173861.56 
  118500            0   -23764.699 2.0137816e-08 -6.4307979e-09 1.8565209e-08 4.8279037e-08 1.7127311e-07 1.1380485e-07 2.4864281e-08    55.812892    55.812892    55.812892    173861.56 
  119000            0   -23764.699 4.2933999e-09 4.6646534e-09 4.311742e-10 7.7843723e-09 1.316421e-07 1.0690423e-07 4.5226966e-08    55.812892    55.812892    55.812892    173861.56 
  119500            0   -23764.699 1.1170751e-08 1.4212265e-08 -9.5594628e-09 2.8859452e-08 7.2108443e-08 2.4002866e-08 -3.9225083e-08    55.812892    55.812892    55.812892    173861.56 
  120000            0   -23764.699 4.0225929e-09 8.8018141e-09 1.2818675e-09 1.984097e-09 7.2185249e-08 3.3333899e-08 4.9852676e-09    55.812892    55.812892    55.812892    173861.56 
  120500            0   -23764.699 1.3613761e-08 -3.806381e-09 2.7099446e-08 1.7548217e-08 5.0682187e-08 3.3019096e-08 1.9494934e-08    55.812892    55.812892    55.812892    173861.56 
  121000            0   -23764.699 -3.7327302e-08 -3.5756733e-08 -5.5759468e-08 -2.0465706e-08 1.7008026e-08 1.9220323e-08 1.1500598e-08    55.812892    55.812892    55.812892    173861.56 
  121500            0   -23764.699 -3.3429124e-09 8.9858079e-09 9.1538578e-09 -2.8168403e-08 -1.1240572e-08 6.2733391e-09 -7.7057738e-09    55.812892    55.812892    55.812892    173861.56 
  122000            0   -23764.699 2.4477375e-09 1.1484883e-09 5.316833e-09 8.778913e-10 -3.1190391e-08 -3.6821794e-08 -1.8449468e-08    55.812892    55.812892    55.812892    173861.56 
  122500            0   -23764.699 8.112882e-09 4.5335823e-09 5.9849075e-09 1.3820156e-08 -1.1793859e-08 1.0182521e-09 1.2720327e-08    55.812892    55.812892    55.812892    173861.56 
  123000            0   -23764.699 2.2641502e-09 3.6257756e-09 -3.638724e-09 6.8053989e-09 -2.9880274e-08 -1.7925175e-08 -1.7292836e-08    55.812892    55.812892    55.812892    173861.56 
  123500            0   -23764.699 -5.5851465e-09 -4.0104276e-09 -9.9084945e-09 -2.8365173e-09 -1.9850649e-08 -1.1959731e-08 2.807134e-10    55.812892    55.812892    55.812892    173861.56 
  124000            0   -23764.699 6.2518459e-09 3.5156412e-09 7.6152502e-09 7.6246463e-09 -2.0161834e-08 -9.0998219e-09 7.7158738e-10    55.812892    55.812892    55.812892    173861.56 
  124500            0   -23764.699 -3.956599e-09 -2.8060699e-10 -7.7558647e-09 -3.8333253e-09 -1.4354078e-08 -1.2896062e-08 -2.407021e-09    55.812892    55.812892    55.812892    173861.56 
  124824            0   -23764.699 6.3620294e-11 1.6516886e-10 1.0414314e-10 -7.8451115e-11 -1.0356222e-08 -9.4041975e-09 -3.5226965e-09    55.812892    55.812892    55.812892    173861.56 
Loop time of 197.59 on 16 procs (16 MPI x 1 OpenMP) for 124824 steps with 3072 atoms

Minimization stats:
  Stopping criterion = force tolerance
  Energy initial, next-to-last, final = 
        -21157.9790202     -23764.6986544     -23764.6986544
  Force two-norm initial, final = 7449.58 8.67238e-11
  Force max component initial, final = 4103.31 1.87097e-11
  Final line search alpha, max atom move = 1 1.87097e-11
  Iterations, force evaluations = 124824 199065

Pair  time (%) = 174.143 (88.1339)
Neigh time (%) = 0.0355252 (0.0179793)
Comm  time (%) = 13.0337 (6.59637)
Outpt time (%) = 0.294028 (0.148808)
Other time (%) = 10.0829 (5.10295)

Nlocal:    192 ave 194 max 190 min
Histogram: 8 0 0 0 0 0 0 0 0 8
Nghost:    570.5 ave 573 max 568 min
Histogram: 8 0 0 0 0 0 0 0 0 8
Neighs:    0 ave 0 max 0 min
Histogram: 16 0 0 0 0 0 0 0 0 0
FullNghs:  11647.5 ave 11775 max 11520 min
Histogram: 8 0 0 0 0 0 0 0 0 8

Total # of neighbors = 186360
Ave neighs/atom = 60.6641
Neighbor list builds = 22
Dangerous builds = 0

#dump rel all xyz 10 relaxed-*.xyz
#dump 3 all xyz 10 relaxed.xyz
#dump 3 all atom 10 dump.atom

variable tmp equal pxx
variable pxx0 equal ${tmp}
variable pxx0 equal 1.65168857833121e-10
variable tmp equal pyy
variable pyy0 equal ${tmp}
variable pyy0 equal 1.04143139101518e-10
variable tmp equal pzz
variable pzz0 equal ${tmp}
variable pzz0 equal -7.8451115080796e-11
variable tmp equal pyz
variable pyz0 equal ${tmp}
variable pyz0 equal -3.52269651813399e-09
variable tmp equal pxz
variable pxz0 equal ${tmp}
variable pxz0 equal -9.40419748692993e-09
variable tmp equal pxy
variable pxy0 equal ${tmp}
variable pxy0 equal -1.03562224350046e-08

variable tmp equal lx
variable lx0 equal ${tmp}
variable lx0 equal 55.8128916161325
variable tmp equal ly
variable ly0 equal ${tmp}
variable ly0 equal 55.8128916161328
variable tmp equal lz
variable lz0 equal ${tmp}
variable lz0 equal 55.8128916161448

# These formulas define the derivatives w.r.t. strain components
# Constants uses $, variables use v_
variable d1 equal -(v_pxx1-${pxx0})/(v_delta/v_len0)*${cfac}
variable d1 equal -(v_pxx1-1.65168857833121e-10)/(v_delta/v_len0)*${cfac}
variable d1 equal -(v_pxx1-1.65168857833121e-10)/(v_delta/v_len0)*0.0001
variable d2 equal -(v_pyy1-${pyy0})/(v_delta/v_len0)*${cfac}
variable d2 equal -(v_pyy1-1.04143139101518e-10)/(v_delta/v_len0)*${cfac}
variable d2 equal -(v_pyy1-1.04143139101518e-10)/(v_delta/v_len0)*0.0001
variable d3 equal -(v_pzz1-${pzz0})/(v_delta/v_len0)*${cfac}
variable d3 equal -(v_pzz1--7.8451115080796e-11)/(v_delta/v_len0)*${cfac}
variable d3 equal -(v_pzz1--7.8451115080796e-11)/(v_delta/v_len0)*0.0001
variable d4 equal -(v_pyz1-${pyz0})/(v_delta/v_len0)*${cfac}
variable d4 equal -(v_pyz1--3.52269651813399e-09)/(v_delta/v_len0)*${cfac}
variable d4 equal -(v_pyz1--3.52269651813399e-09)/(v_delta/v_len0)*0.0001
variable d5 equal -(v_pxz1-${pxz0})/(v_delta/v_len0)*${cfac}
variable d5 equal -(v_pxz1--9.40419748692993e-09)/(v_delta/v_len0)*${cfac}
variable d5 equal -(v_pxz1--9.40419748692993e-09)/(v_delta/v_len0)*0.0001
variable d6 equal -(v_pxy1-${pxy0})/(v_delta/v_len0)*${cfac}
variable d6 equal -(v_pxy1--1.03562224350046e-08)/(v_delta/v_len0)*${cfac}
variable d6 equal -(v_pxy1--1.03562224350046e-08)/(v_delta/v_len0)*0.0001

displace_atoms all random ${atomjiggle} ${atomjiggle} ${atomjiggle} 87287 units box
displace_atoms all random 1e-05 ${atomjiggle} ${atomjiggle} 87287 units box
displace_atoms all random 1e-05 1e-05 ${atomjiggle} 87287 units box
displace_atoms all random 1e-05 1e-05 1e-05 87287 units box

# Write restart
unfix 3
write_restart restart.equil

# uxx Perturbation

variable dir equal 1
include displace.mod
# NOTE: This script should not need to be
# modified. See in.elastic for more info.
#
# Find which reference length to use

if "${dir} == 1" then    "variable len0 equal ${lx0}"
variable len0 equal ${lx0}
variable len0 equal 55.8128916161325
if "${dir} == 2" then    "variable len0 equal ${ly0}"
if "${dir} == 3" then    "variable len0 equal ${lz0}"
if "${dir} == 4" then    "variable len0 equal ${lz0}"
if "${dir} == 5" then    "variable len0 equal ${lz0}"
if "${dir} == 6" then    "variable len0 equal ${ly0}"

# Reset box and simulation parameters

clear
  using 1 OpenMP thread(s) per MPI task
box tilt large
read_restart restart.equil
  triclinic box = (-27.9064 -27.9064 -27.9064) to (27.9064 27.9064 27.9064) with tilt (0 0 0)
  2 by 2 by 4 MPI processor grid
  3072 atoms
include potential.mod
# NOTE: This script can be modified for different pair styles
# See in.elastic for more info.

# Choose potential
pair_style     rebo
pair_coeff     * * CH.airebo  C
Reading potential file CH.airebo with DATE: 2011-10-25

#pair_style     lcbop
#pair_coeff     C.lcbop
#pair_style     tersoff
#pair_coeff     BNC.tersoff


# Setup neighbor style
neighbor 1.0 nsq
neigh_modify once no every 1 delay 0 check yes

# Setup minimization style
min_style	     cg
min_modify	     dmax ${dmax} line quadratic
min_modify	     dmax 0.01 line quadratic

# Setup output
thermo		500
thermo_style custom step temp pe press pxx pyy pzz pxy pxz pyz lx ly lz vol
thermo_modify norm no


# Output
dump            1 all xtc 100 traj.xtc
dump            2 all xyz 2000 relaxed.xyz
#dump            4 all atom 10 dump.atom

# Negative deformation

variable delta equal -${up}*${len0}
variable delta equal -1.0e-5*${len0}
variable delta equal -1.0e-5*55.8128916161325
variable deltaxy equal -${up}*xy
variable deltaxy equal -1.0e-5*xy
variable deltaxz equal -${up}*xz
variable deltaxz equal -1.0e-5*xz
variable deltayz equal -${up}*yz
variable deltayz equal -1.0e-5*yz
if "${dir} == 1" then    "change_box all x delta 0 ${delta} xy delta ${deltaxy} xz delta ${deltaxz} remap units box"
change_box all x delta 0 ${delta} xy delta ${deltaxy} xz delta ${deltaxz} remap units box
change_box all x delta 0 -0.000558128916161325 xy delta ${deltaxy} xz delta ${deltaxz} remap units box
change_box all x delta 0 -0.000558128916161325 xy delta -0 xz delta ${deltaxz} remap units box
change_box all x delta 0 -0.000558128916161325 xy delta -0 xz delta -0 remap units box
  triclinic box = (-27.9064 -27.9064 -27.9064) to (27.9059 27.9064 27.9064) with tilt (0 0 0)
  triclinic box = (-27.9064 -27.9064 -27.9064) to (27.9059 27.9064 27.9064) with tilt (0 0 0)
  triclinic box = (-27.9064 -27.9064 -27.9064) to (27.9059 27.9064 27.9064) with tilt (0 0 0)
if "${dir} == 2" then    "change_box all y delta 0 ${delta} yz delta ${deltayz} remap units box"
if "${dir} == 3" then    "change_box all z delta 0 ${delta} remap units box"
if "${dir} == 4" then    "change_box all yz delta ${delta} remap units box"
if "${dir} == 5" then    "change_box all xz delta ${delta} remap units box"
if "${dir} == 6" then    "change_box all xy delta ${delta} remap units box"

# Relax atoms positions

minimize ${etol} ${ftol} ${maxiter} ${maxeval}
minimize 0 ${ftol} ${maxiter} ${maxeval}
minimize 0 1e-10 ${maxiter} ${maxeval}
minimize 0 1e-10 10000000 ${maxeval}
minimize 0 1e-10 10000000 10000000
Neighbor list info ...
  1 neighbor list requests
  update every 1 steps, delay 0 steps, check yes
  master list distance cutoff = 7
Memory usage per processor = 3.83147 Mbytes
Step Temp PotEng Press Pxx Pyy Pzz Pxy Pxz Pyz Lx Ly Lz Volume 
  124824            0   -23764.699    4.3053786    8.3800689     2.182205     2.353862 -0.018593724 -0.039639808 -0.041709312    55.812333    55.812892    55.812892    173859.82 
  125000            0   -23764.699    1.1989023    1.8192573   0.88905308   0.88839661 -0.00016201518 -0.00072016105 1.6280096e-05    55.812333    55.812892    55.812892    173859.82 
  125500            0   -23764.699    1.0447703    1.7133768    0.7104668   0.71046741 3.3411394e-06 -1.3562236e-06 -3.5553634e-06    55.812333    55.812892    55.812892    173859.82 
  126000            0   -23764.699    1.0447824    1.7133879   0.71047937   0.71047991 7.4513672e-09 2.7905877e-09 1.4386392e-08    55.812333    55.812892    55.812892    173859.82 
  126252            0   -23764.699    1.0447824    1.7133879   0.71047933   0.71047988 6.7366323e-10 -3.5751476e-11 -4.0131196e-10    55.812333    55.812892    55.812892    173859.82 
Loop time of 2.70832 on 16 procs (16 MPI x 1 OpenMP) for 1428 steps with 3072 atoms

Minimization stats:
  Stopping criterion = force tolerance
  Energy initial, next-to-last, final = 
        -23764.6986409     -23764.6986535     -23764.6986535
  Force two-norm initial, final = 0.0450592 9.99858e-11
  Force max component initial, final = 0.00175901 5.29227e-12
  Final line search alpha, max atom move = 1 5.29227e-12
  Iterations, force evaluations = 1428 2856

Pair  time (%) = 2.44416 (90.2462)
Neigh time (%) = 0 (0)
Comm  time (%) = 0.186664 (6.89223)
Outpt time (%) = 0.00424708 (0.156816)
Other time (%) = 0.073254 (2.70477)

Nlocal:    192 ave 194 max 190 min
Histogram: 8 0 0 0 0 0 0 0 0 8
Nghost:    570 ave 572 max 568 min
Histogram: 8 0 0 0 0 0 0 0 0 8
Neighs:    0 ave 0 max 0 min
Histogram: 16 0 0 0 0 0 0 0 0 0
FullNghs:  11632.5 ave 11752 max 11513 min
Histogram: 8 0 0 0 0 0 0 0 0 8

Total # of neighbors = 186120
Ave neighs/atom = 60.5859
Neighbor list builds = 0
Dangerous builds = 0

# Obtain new stress tensor

variable tmp equal pxx
variable pxx1 equal ${tmp}
variable pxx1 equal 1.71338788536471
variable tmp equal pyy
variable pyy1 equal ${tmp}
variable pyy1 equal 0.710479334039638
variable tmp equal pzz
variable pzz1 equal ${tmp}
variable pzz1 equal 0.710479875689478
variable tmp equal pxy
variable pxy1 equal ${tmp}
variable pxy1 equal 6.73663228843033e-10
variable tmp equal pxz
variable pxz1 equal ${tmp}
variable pxz1 equal -3.5751475999154e-11
variable tmp equal pyz
variable pyz1 equal ${tmp}
variable pyz1 equal -4.01311955062848e-10

# Compute elastic constant from pressure tensor

variable C1neg equal ${d1}
variable C1neg equal 17.1338788519954
variable C2neg equal ${d2}
variable C2neg equal 7.10479333935495
variable C3neg equal ${d3}
variable C3neg equal 7.10479875767929
variable C4neg equal ${d4}
variable C4neg equal 3.12138456307114e-08
variable C5neg equal ${d5}
variable C5neg equal 9.36844601093078e-08
variable C6neg equal ${d6}
variable C6neg equal 1.10298856638476e-07

# Reset box and simulation parameters

clear
  using 1 OpenMP thread(s) per MPI task
box tilt large
read_restart restart.equil
  triclinic box = (-27.9064 -27.9064 -27.9064) to (27.9064 27.9064 27.9064) with tilt (0 0 0)
  2 by 2 by 4 MPI processor grid
  3072 atoms
include potential.mod
# NOTE: This script can be modified for different pair styles
# See in.elastic for more info.

# Choose potential
pair_style     rebo
pair_coeff     * * CH.airebo  C
Reading potential file CH.airebo with DATE: 2011-10-25

#pair_style     lcbop
#pair_coeff     C.lcbop
#pair_style     tersoff
#pair_coeff     BNC.tersoff


# Setup neighbor style
neighbor 1.0 nsq
neigh_modify once no every 1 delay 0 check yes

# Setup minimization style
min_style	     cg
min_modify	     dmax ${dmax} line quadratic
min_modify	     dmax 0.01 line quadratic

# Setup output
thermo		500
thermo_style custom step temp pe press pxx pyy pzz pxy pxz pyz lx ly lz vol
thermo_modify norm no


# Output
dump            1 all xtc 100 traj.xtc
dump            2 all xyz 2000 relaxed.xyz
#dump            4 all atom 10 dump.atom

# Positive deformation

variable delta equal ${up}*${len0}
variable delta equal 1.0e-5*${len0}
variable delta equal 1.0e-5*55.8128916161325
variable deltaxy equal ${up}*xy
variable deltaxy equal 1.0e-5*xy
variable deltaxz equal ${up}*xz
variable deltaxz equal 1.0e-5*xz
variable deltayz equal ${up}*yz
variable deltayz equal 1.0e-5*yz
if "${dir} == 1" then    "change_box all x delta 0 ${delta} xy delta ${deltaxy} xz delta ${deltaxz} remap units box"
change_box all x delta 0 ${delta} xy delta ${deltaxy} xz delta ${deltaxz} remap units box
change_box all x delta 0 0.000558128916161325 xy delta ${deltaxy} xz delta ${deltaxz} remap units box
change_box all x delta 0 0.000558128916161325 xy delta 0 xz delta ${deltaxz} remap units box
change_box all x delta 0 0.000558128916161325 xy delta 0 xz delta 0 remap units box
  triclinic box = (-27.9064 -27.9064 -27.9064) to (27.907 27.9064 27.9064) with tilt (0 0 0)
  triclinic box = (-27.9064 -27.9064 -27.9064) to (27.907 27.9064 27.9064) with tilt (0 0 0)
  triclinic box = (-27.9064 -27.9064 -27.9064) to (27.907 27.9064 27.9064) with tilt (0 0 0)
if "${dir} == 2" then    "change_box all y delta 0 ${delta} yz delta ${deltayz} remap units box"
if "${dir} == 3" then    "change_box all z delta 0 ${delta} remap units box"
if "${dir} == 4" then    "change_box all yz delta ${delta} remap units box"
if "${dir} == 5" then    "change_box all xz delta ${delta} remap units box"
if "${dir} == 6" then    "change_box all xy delta ${delta} remap units box"

# Relax atoms positions

minimize ${etol} ${ftol} ${maxiter} ${maxeval}
minimize 0 ${ftol} ${maxiter} ${maxeval}
minimize 0 1e-10 ${maxiter} ${maxeval}
minimize 0 1e-10 10000000 ${maxeval}
minimize 0 1e-10 10000000 10000000
Neighbor list info ...
  1 neighbor list requests
  update every 1 steps, delay 0 steps, check yes
  master list distance cutoff = 7
Memory usage per processor = 3.83147 Mbytes
Step Temp PotEng Press Pxx Pyy Pzz Pxy Pxz Pyz Lx Ly Lz Volume 
  124824            0   -23764.699   -4.2985283   -8.1961871   -2.4355246   -2.2638731 -0.018602588 -0.039631653 -0.041699578     55.81345    55.812892    55.812892     173863.3 
  125000            0   -23764.699   -1.2009697   -1.8201535  -0.89077079  -0.89198477 -0.00029461976 0.00016257786 0.00014699231     55.81345    55.812892    55.812892     173863.3 
  125500            0   -23764.699   -1.0453618   -1.7140304  -0.71102782  -0.71102725 3.3313011e-06 -1.306425e-06 -3.4358629e-06     55.81345    55.812892    55.812892     173863.3 
  126000            0   -23764.699   -1.0453518   -1.7140197  -0.71101807  -0.71101753 8.8802214e-09 3.0715944e-09 1.3926771e-08     55.81345    55.812892    55.812892     173863.3 
  126251            0   -23764.699   -1.0453518   -1.7140197   -0.7110181  -0.71101756 4.9014883e-10 4.6971982e-11 3.6839326e-11     55.81345    55.812892    55.812892     173863.3 
Loop time of 2.67806 on 16 procs (16 MPI x 1 OpenMP) for 1427 steps with 3072 atoms

Minimization stats:
  Stopping criterion = force tolerance
  Energy initial, next-to-last, final = 
        -23764.6986411     -23764.6986535     -23764.6986535
  Force two-norm initial, final = 0.0443109 9.89347e-11
  Force max component initial, final = 0.00184754 4.42122e-12
  Final line search alpha, max atom move = 1 4.42122e-12
  Iterations, force evaluations = 1427 2854

Pair  time (%) = 2.43293 (90.8467)
Neigh time (%) = 0 (0)
Comm  time (%) = 0.168295 (6.2842)
Outpt time (%) = 0.00407836 (0.152288)
Other time (%) = 0.0727592 (2.71686)

Nlocal:    192 ave 194 max 190 min
Histogram: 8 0 0 0 0 0 0 0 0 8
Nghost:    570 ave 572 max 568 min
Histogram: 8 0 0 0 0 0 0 0 0 8
Neighs:    0 ave 0 max 0 min
Histogram: 16 0 0 0 0 0 0 0 0 0
FullNghs:  11632.5 ave 11752 max 11513 min
Histogram: 8 0 0 0 0 0 0 0 0 8

Total # of neighbors = 186120
Ave neighs/atom = 60.5859
Neighbor list builds = 0
Dangerous builds = 0

# Obtain new stress tensor

variable tmp equal pe
variable e1 equal ${tmp}
variable e1 equal -23764.6986535087
variable tmp equal press
variable p1 equal ${tmp}
variable p1 equal -1.04535178490523
variable tmp equal pxx
variable pxx1 equal ${tmp}
variable pxx1 equal -1.71401968979213
variable tmp equal pyy
variable pyy1 equal ${tmp}
variable pyy1 equal -0.711018103634144
variable tmp equal pzz
variable pzz1 equal ${tmp}
variable pzz1 equal -0.711017561289411
variable tmp equal pxy
variable pxy1 equal ${tmp}
variable pxy1 equal 4.90148825974291e-10
variable tmp equal pxz
variable pxz1 equal ${tmp}
variable pxz1 equal 4.69719819701843e-11
variable tmp equal pyz
variable pyz1 equal ${tmp}
variable pyz1 equal 3.68393258142184e-11

# Compute elastic constant from pressure tensor

variable C1pos equal ${d1}
variable C1pos equal 17.140196899573
variable C2pos equal ${d2}
variable C2pos equal 7.11018103738287
variable C3pos equal ${d3}
variable C3pos equal 7.1101756121096
variable C4pos equal ${d4}
variable C4pos equal -3.55953584394821e-08
variable C5pos equal ${d5}
variable C5pos equal -9.45116946890011e-08
variable C6pos equal ${d6}
variable C6pos equal -1.08463712609789e-07

# Combine positive and negative

variable C1${dir} equal 0.5*(${C1neg}+${C1pos})
variable C11 equal 0.5*(${C1neg}+${C1pos})
variable C11 equal 0.5*(17.1338788519954+${C1pos})
variable C11 equal 0.5*(17.1338788519954+17.140196899573)
variable C2${dir} equal 0.5*(${C2neg}+${C2pos})
variable C21 equal 0.5*(${C2neg}+${C2pos})
variable C21 equal 0.5*(7.10479333935495+${C2pos})
variable C21 equal 0.5*(7.10479333935495+7.11018103738287)
variable C3${dir} equal 0.5*(${C3neg}+${C3pos})
variable C31 equal 0.5*(${C3neg}+${C3pos})
variable C31 equal 0.5*(7.10479875767929+${C3pos})
variable C31 equal 0.5*(7.10479875767929+7.1101756121096)
variable C4${dir} equal 0.5*(${C4neg}+${C4pos})
variable C41 equal 0.5*(${C4neg}+${C4pos})
variable C41 equal 0.5*(3.12138456307114e-08+${C4pos})
variable C41 equal 0.5*(3.12138456307114e-08+-3.55953584394821e-08)
variable C5${dir} equal 0.5*(${C5neg}+${C5pos})
variable C51 equal 0.5*(${C5neg}+${C5pos})
variable C51 equal 0.5*(9.36844601093078e-08+${C5pos})
variable C51 equal 0.5*(9.36844601093078e-08+-9.45116946890011e-08)
variable C6${dir} equal 0.5*(${C6neg}+${C6pos})
variable C61 equal 0.5*(${C6neg}+${C6pos})
variable C61 equal 0.5*(1.10298856638476e-07+${C6pos})
variable C61 equal 0.5*(1.10298856638476e-07+-1.08463712609789e-07)

# Delete dir to make sure it is not reused

variable dir delete

# uyy Perturbation

variable dir equal 2
include displace.mod
# NOTE: This script should not need to be
# modified. See in.elastic for more info.
#
# Find which reference length to use

if "${dir} == 1" then    "variable len0 equal ${lx0}"
if "${dir} == 2" then    "variable len0 equal ${ly0}"
variable len0 equal ${ly0}
variable len0 equal 55.8128916161328
if "${dir} == 3" then    "variable len0 equal ${lz0}"
if "${dir} == 4" then    "variable len0 equal ${lz0}"
if "${dir} == 5" then    "variable len0 equal ${lz0}"
if "${dir} == 6" then    "variable len0 equal ${ly0}"

# Reset box and simulation parameters

clear
  using 1 OpenMP thread(s) per MPI task
box tilt large
read_restart restart.equil
  triclinic box = (-27.9064 -27.9064 -27.9064) to (27.9064 27.9064 27.9064) with tilt (0 0 0)
  2 by 2 by 4 MPI processor grid
  3072 atoms
include potential.mod
# NOTE: This script can be modified for different pair styles
# See in.elastic for more info.

# Choose potential
pair_style     rebo
pair_coeff     * * CH.airebo  C
Reading potential file CH.airebo with DATE: 2011-10-25

#pair_style     lcbop
#pair_coeff     C.lcbop
#pair_style     tersoff
#pair_coeff     BNC.tersoff


# Setup neighbor style
neighbor 1.0 nsq
neigh_modify once no every 1 delay 0 check yes

# Setup minimization style
min_style	     cg
min_modify	     dmax ${dmax} line quadratic
min_modify	     dmax 0.01 line quadratic

# Setup output
thermo		500
thermo_style custom step temp pe press pxx pyy pzz pxy pxz pyz lx ly lz vol
thermo_modify norm no


# Output
dump            1 all xtc 100 traj.xtc
dump            2 all xyz 2000 relaxed.xyz
#dump            4 all atom 10 dump.atom

# Negative deformation

variable delta equal -${up}*${len0}
variable delta equal -1.0e-5*${len0}
variable delta equal -1.0e-5*55.8128916161328
variable deltaxy equal -${up}*xy
variable deltaxy equal -1.0e-5*xy
variable deltaxz equal -${up}*xz
variable deltaxz equal -1.0e-5*xz
variable deltayz equal -${up}*yz
variable deltayz equal -1.0e-5*yz
if "${dir} == 1" then    "change_box all x delta 0 ${delta} xy delta ${deltaxy} xz delta ${deltaxz} remap units box"
if "${dir} == 2" then    "change_box all y delta 0 ${delta} yz delta ${deltayz} remap units box"
change_box all y delta 0 ${delta} yz delta ${deltayz} remap units box
change_box all y delta 0 -0.000558128916161328 yz delta ${deltayz} remap units box
change_box all y delta 0 -0.000558128916161328 yz delta -0 remap units box
  triclinic box = (-27.9064 -27.9064 -27.9064) to (27.9064 27.9059 27.9064) with tilt (0 0 0)
  triclinic box = (-27.9064 -27.9064 -27.9064) to (27.9064 27.9059 27.9064) with tilt (0 0 0)
if "${dir} == 3" then    "change_box all z delta 0 ${delta} remap units box"
if "${dir} == 4" then    "change_box all yz delta ${delta} remap units box"
if "${dir} == 5" then    "change_box all xz delta ${delta} remap units box"
if "${dir} == 6" then    "change_box all xy delta ${delta} remap units box"

# Relax atoms positions

minimize ${etol} ${ftol} ${maxiter} ${maxeval}
minimize 0 ${ftol} ${maxiter} ${maxeval}
minimize 0 1e-10 ${maxiter} ${maxeval}
minimize 0 1e-10 10000000 ${maxeval}
minimize 0 1e-10 10000000 10000000
Neighbor list info ...
  1 neighbor list requests
  update every 1 steps, delay 0 steps, check yes
  master list distance cutoff = 7
Memory usage per processor = 3.83147 Mbytes
Step Temp PotEng Press Pxx Pyy Pzz Pxy Pxz Pyz Lx Ly Lz Volume 
  124824            0   -23764.699    4.3053687    2.4006666    8.1615708    2.3538686 -0.018602109 -0.039635021 -0.041703474    55.812892    55.812333    55.812892    173859.82 
  125000            0   -23764.699    1.1946463   0.88363933    1.8167746   0.88352492 0.0004393967 -0.00040662026 -0.00063831429    55.812892    55.812333    55.812892    173859.82 
  125500            0   -23764.699     1.044771   0.71046814    1.7133775    0.7104675 3.3090495e-06 -1.3389451e-06 -3.5523181e-06    55.812892    55.812333    55.812892    173859.82 
  126000            0   -23764.699    1.0447824   0.71047994    1.7133879   0.71047935 1.2089642e-08 3.0701416e-09 1.3718221e-08    55.812892    55.812333    55.812892    173859.82 
  126145            0   -23764.699    1.0447824   0.71047993    1.7133879   0.71047934 -1.6443142e-09 1.9132073e-09 1.837657e-09    55.812892    55.812333    55.812892    173859.82 
Loop time of 2.5073 on 16 procs (16 MPI x 1 OpenMP) for 1321 steps with 3072 atoms

Minimization stats:
  Stopping criterion = force tolerance
  Energy initial, next-to-last, final = 
        -23764.6986412     -23764.6986535     -23764.6986535
  Force two-norm initial, final = 0.0442365 9.95703e-11
  Force max component initial, final = 0.00167665 4.68856e-12
  Final line search alpha, max atom move = 1 4.68856e-12
  Iterations, force evaluations = 1321 2642

Pair  time (%) = 2.25467 (89.9241)
Neigh time (%) = 0 (0)
Comm  time (%) = 0.179776 (7.1701)
Outpt time (%) = 0.00399399 (0.159294)
Other time (%) = 0.0688634 (2.74651)

Nlocal:    192 ave 194 max 190 min
Histogram: 8 0 0 0 0 0 0 0 0 8
Nghost:    570 ave 572 max 568 min
Histogram: 8 0 0 0 0 0 0 0 0 8
Neighs:    0 ave 0 max 0 min
Histogram: 16 0 0 0 0 0 0 0 0 0
FullNghs:  11632.5 ave 11752 max 11513 min
Histogram: 8 0 0 0 0 0 0 0 0 8

Total # of neighbors = 186120
Ave neighs/atom = 60.5859
Neighbor list builds = 0
Dangerous builds = 0

# Obtain new stress tensor

variable tmp equal pxx
variable pxx1 equal ${tmp}
variable pxx1 equal 0.710479930123719
variable tmp equal pyy
variable pyy1 equal ${tmp}
variable pyy1 equal 1.71338791619912
variable tmp equal pzz
variable pzz1 equal ${tmp}
variable pzz1 equal 0.710479344472488
variable tmp equal pxy
variable pxy1 equal ${tmp}
variable pxy1 equal -1.64431416524772e-09
variable tmp equal pxz
variable pxz1 equal ${tmp}
variable pxz1 equal 1.91320733495061e-09
variable tmp equal pyz
variable pyz1 equal ${tmp}
variable pyz1 equal 1.83765696883106e-09

# Compute elastic constant from pressure tensor

variable C1neg equal ${d1}
variable C1neg equal 7.1047992995855
variable C2neg equal ${d2}
variable C2neg equal 17.1338791609498
variable C3neg equal ${d3}
variable C3neg equal 7.10479344550939
variable C4neg equal ${d4}
variable C4neg equal 5.36035348696505e-08
variable C5neg equal ${d5}
variable C5neg equal 1.13174048218805e-07
variable C6neg equal ${d6}
variable C6neg equal 8.71190826975688e-08

# Reset box and simulation parameters

clear
  using 1 OpenMP thread(s) per MPI task
box tilt large
read_restart restart.equil
  triclinic box = (-27.9064 -27.9064 -27.9064) to (27.9064 27.9064 27.9064) with tilt (0 0 0)
  2 by 2 by 4 MPI processor grid
  3072 atoms
include potential.mod
# NOTE: This script can be modified for different pair styles
# See in.elastic for more info.

# Choose potential
pair_style     rebo
pair_coeff     * * CH.airebo  C
Reading potential file CH.airebo with DATE: 2011-10-25

#pair_style     lcbop
#pair_coeff     C.lcbop
#pair_style     tersoff
#pair_coeff     BNC.tersoff


# Setup neighbor style
neighbor 1.0 nsq
neigh_modify once no every 1 delay 0 check yes

# Setup minimization style
min_style	     cg
min_modify	     dmax ${dmax} line quadratic
min_modify	     dmax 0.01 line quadratic

# Setup output
thermo		500
thermo_style custom step temp pe press pxx pyy pzz pxy pxz pyz lx ly lz vol
thermo_modify norm no


# Output
dump            1 all xtc 100 traj.xtc
dump            2 all xyz 2000 relaxed.xyz
#dump            4 all atom 10 dump.atom

# Positive deformation

variable delta equal ${up}*${len0}
variable delta equal 1.0e-5*${len0}
variable delta equal 1.0e-5*55.8128916161328
variable deltaxy equal ${up}*xy
variable deltaxy equal 1.0e-5*xy
variable deltaxz equal ${up}*xz
variable deltaxz equal 1.0e-5*xz
variable deltayz equal ${up}*yz
variable deltayz equal 1.0e-5*yz
if "${dir} == 1" then    "change_box all x delta 0 ${delta} xy delta ${deltaxy} xz delta ${deltaxz} remap units box"
if "${dir} == 2" then    "change_box all y delta 0 ${delta} yz delta ${deltayz} remap units box"
change_box all y delta 0 ${delta} yz delta ${deltayz} remap units box
change_box all y delta 0 0.000558128916161328 yz delta ${deltayz} remap units box
change_box all y delta 0 0.000558128916161328 yz delta 0 remap units box
  triclinic box = (-27.9064 -27.9064 -27.9064) to (27.9064 27.907 27.9064) with tilt (0 0 0)
  triclinic box = (-27.9064 -27.9064 -27.9064) to (27.9064 27.907 27.9064) with tilt (0 0 0)
if "${dir} == 3" then    "change_box all z delta 0 ${delta} remap units box"
if "${dir} == 4" then    "change_box all yz delta ${delta} remap units box"
if "${dir} == 5" then    "change_box all xz delta ${delta} remap units box"
if "${dir} == 6" then    "change_box all xy delta ${delta} remap units box"

# Relax atoms positions

minimize ${etol} ${ftol} ${maxiter} ${maxeval}
minimize 0 ${ftol} ${maxiter} ${maxeval}
minimize 0 1e-10 ${maxiter} ${maxeval}
minimize 0 1e-10 10000000 ${maxeval}
minimize 0 1e-10 10000000 10000000
Neighbor list info ...
  1 neighbor list requests
  update every 1 steps, delay 0 steps, check yes
  master list distance cutoff = 7
Memory usage per processor = 3.83147 Mbytes
Step Temp PotEng Press Pxx Pyy Pzz Pxy Pxz Pyz Lx Ly Lz Volume 
  124824            0   -23764.699   -4.2985183   -2.2170674   -8.4146141   -2.2638736 -0.018594204  -0.03963644 -0.041705416    55.812892     55.81345    55.812892     173863.3 
  125000            0   -23764.699   -1.2022856  -0.89293769   -1.8209277  -0.89299143 0.00048856417 -0.00032999451 -0.00041779297    55.812892     55.81345    55.812892     173863.3 
  125500            0   -23764.699   -1.0453616  -0.71102692   -1.7140302  -0.71102758 3.2759881e-06 -1.321593e-06 -3.5950552e-06    55.812892     55.81345    55.812892     173863.3 
  126000            0   -23764.699   -1.0453518  -0.71101751   -1.7140197   -0.7110181 6.8389618e-09 5.8043464e-09 1.5982096e-08    55.812892     55.81345    55.812892     173863.3 
  126148            0   -23764.699   -1.0453518  -0.71101751   -1.7140197  -0.71101809 -1.4644798e-09 2.123921e-09 1.8667332e-09    55.812892     55.81345    55.812892     173863.3 
Loop time of 2.49152 on 16 procs (16 MPI x 1 OpenMP) for 1324 steps with 3072 atoms

Minimization stats:
  Stopping criterion = force tolerance
  Energy initial, next-to-last, final = 
        -23764.6986409     -23764.6986535     -23764.6986535
  Force two-norm initial, final = 0.0451321 9.86788e-11
  Force max component initial, final = 0.00202713 5.53756e-12
  Final line search alpha, max atom move = 1 5.53756e-12
  Iterations, force evaluations = 1324 2648

Pair  time (%) = 2.25831 (90.6399)
Neigh time (%) = 0 (0)
Comm  time (%) = 0.166816 (6.69535)
Outpt time (%) = 0.00394538 (0.158352)
Other time (%) = 0.0624464 (2.50635)

Nlocal:    192 ave 194 max 190 min
Histogram: 8 0 0 0 0 0 0 0 0 8
Nghost:    570 ave 572 max 568 min
Histogram: 8 0 0 0 0 0 0 0 0 8
Neighs:    0 ave 0 max 0 min
Histogram: 16 0 0 0 0 0 0 0 0 0
FullNghs:  11632.5 ave 11752 max 11513 min
Histogram: 8 0 0 0 0 0 0 0 0 8

Total # of neighbors = 186120
Ave neighs/atom = 60.5859
Neighbor list builds = 0
Dangerous builds = 0

# Obtain new stress tensor

variable tmp equal pe
variable e1 equal ${tmp}
variable e1 equal -23764.6986535087
variable tmp equal press
variable p1 equal ${tmp}
variable p1 equal -1.04535175373974
variable tmp equal pxx
variable pxx1 equal ${tmp}
variable pxx1 equal -0.711017508492437
variable tmp equal pyy
variable pyy1 equal ${tmp}
variable pyy1 equal -1.71401965900454
variable tmp equal pzz
variable pzz1 equal ${tmp}
variable pzz1 equal -0.711018093722253
variable tmp equal pxy
variable pxy1 equal ${tmp}
variable pxy1 equal -1.46447983306205e-09
variable tmp equal pxz
variable pxz1 equal ${tmp}
variable pxz1 equal 2.12392095300241e-09
variable tmp equal pyz
variable pyz1 equal ${tmp}
variable pyz1 equal 1.86673318693705e-09

# Compute elastic constant from pressure tensor

variable C1pos equal ${d1}
variable C1pos equal 7.11017508657606
variable C2pos equal ${d2}
variable C2pos equal 17.1401965910868
variable C3pos equal ${d3}
variable C3pos equal 7.11018093643802
variable C4pos equal ${d4}
variable C4pos equal -5.38942970507104e-08
variable C5pos equal ${d5}
variable C5pos equal -1.15281184399323e-07
variable C6pos equal ${d6}
variable C6pos equal -8.89174260194255e-08

# Combine positive and negative

variable C1${dir} equal 0.5*(${C1neg}+${C1pos})
variable C12 equal 0.5*(${C1neg}+${C1pos})
variable C12 equal 0.5*(7.1047992995855+${C1pos})
variable C12 equal 0.5*(7.1047992995855+7.11017508657606)
variable C2${dir} equal 0.5*(${C2neg}+${C2pos})
variable C22 equal 0.5*(${C2neg}+${C2pos})
variable C22 equal 0.5*(17.1338791609498+${C2pos})
variable C22 equal 0.5*(17.1338791609498+17.1401965910868)
variable C3${dir} equal 0.5*(${C3neg}+${C3pos})
variable C32 equal 0.5*(${C3neg}+${C3pos})
variable C32 equal 0.5*(7.10479344550939+${C3pos})
variable C32 equal 0.5*(7.10479344550939+7.11018093643802)
variable C4${dir} equal 0.5*(${C4neg}+${C4pos})
variable C42 equal 0.5*(${C4neg}+${C4pos})
variable C42 equal 0.5*(5.36035348696505e-08+${C4pos})
variable C42 equal 0.5*(5.36035348696505e-08+-5.38942970507104e-08)
variable C5${dir} equal 0.5*(${C5neg}+${C5pos})
variable C52 equal 0.5*(${C5neg}+${C5pos})
variable C52 equal 0.5*(1.13174048218805e-07+${C5pos})
variable C52 equal 0.5*(1.13174048218805e-07+-1.15281184399323e-07)
variable C6${dir} equal 0.5*(${C6neg}+${C6pos})
variable C62 equal 0.5*(${C6neg}+${C6pos})
variable C62 equal 0.5*(8.71190826975688e-08+${C6pos})
variable C62 equal 0.5*(8.71190826975688e-08+-8.89174260194255e-08)

# Delete dir to make sure it is not reused

variable dir delete

# uzz Perturbation

variable dir equal 3
include displace.mod
# NOTE: This script should not need to be
# modified. See in.elastic for more info.
#
# Find which reference length to use

if "${dir} == 1" then    "variable len0 equal ${lx0}"
if "${dir} == 2" then    "variable len0 equal ${ly0}"
if "${dir} == 3" then    "variable len0 equal ${lz0}"
variable len0 equal ${lz0}
variable len0 equal 55.8128916161448
if "${dir} == 4" then    "variable len0 equal ${lz0}"
if "${dir} == 5" then    "variable len0 equal ${lz0}"
if "${dir} == 6" then    "variable len0 equal ${ly0}"

# Reset box and simulation parameters

clear
  using 1 OpenMP thread(s) per MPI task
box tilt large
read_restart restart.equil
  triclinic box = (-27.9064 -27.9064 -27.9064) to (27.9064 27.9064 27.9064) with tilt (0 0 0)
  2 by 2 by 4 MPI processor grid
  3072 atoms
include potential.mod
# NOTE: This script can be modified for different pair styles
# See in.elastic for more info.

# Choose potential
pair_style     rebo
pair_coeff     * * CH.airebo  C
Reading potential file CH.airebo with DATE: 2011-10-25

#pair_style     lcbop
#pair_coeff     C.lcbop
[...]
#dump            4 all atom 10 dump.atom

# Negative deformation

variable delta equal -${up}*${len0}
variable delta equal -1.0e-5*${len0}
variable delta equal -1.0e-5*55.8128916161328
variable deltaxy equal -${up}*xy
variable deltaxy equal -1.0e-5*xy
variable deltaxz equal -${up}*xz
variable deltaxz equal -1.0e-5*xz
variable deltayz equal -${up}*yz
variable deltayz equal -1.0e-5*yz
if "${dir} == 1" then    "change_box all x delta 0 ${delta} xy delta ${deltaxy} xz delta ${deltaxz} remap units box"
if "${dir} == 2" then    "change_box all y delta 0 ${delta} yz delta ${deltayz} remap units box"
if "${dir} == 3" then    "change_box all z delta 0 ${delta} remap units box"
if "${dir} == 4" then    "change_box all yz delta ${delta} remap units box"
if "${dir} == 5" then    "change_box all xz delta ${delta} remap units box"
if "${dir} == 6" then    "change_box all xy delta ${delta} remap units box"
change_box all xy delta ${delta} remap units box
change_box all xy delta -0.000558128916161328 remap units box
  triclinic box = (-27.9064 -27.9064 -27.9064) to (27.9064 27.9064 27.9064) with tilt (-0.000558129 0 0)

# Relax atoms positions

minimize ${etol} ${ftol} ${maxiter} ${maxeval}
minimize 0 ${ftol} ${maxiter} ${maxeval}
minimize 0 1e-10 ${maxiter} ${maxeval}
minimize 0 1e-10 10000000 ${maxeval}
minimize 0 1e-10 10000000 10000000
Neighbor list info ...
  1 neighbor list requests
  update every 1 steps, delay 0 steps, check yes
  master list distance cutoff = 7
Memory usage per processor = 3.83147 Mbytes
Step Temp PotEng Press Pxx Pyy Pzz Pxy Pxz Pyz Lx Ly Lz Volume 
  124824            0   -23764.699 0.0033192324  0.091729357  -0.12668441  0.044912752     4.463728 -0.039639139 -0.041702206    55.812892    55.812892    55.812892    173861.56 
  125000            0   -23764.699 -0.00012936421 3.7713784e-05 7.1759096e-05 -0.00049756551    2.1298104 -2.6908941e-05 2.4471863e-05    55.812892    55.812892    55.812892    173861.56 
  125500            0   -23764.699 -6.5943394e-05 -9.2494392e-05 -5.8623643e-05 -4.6712146e-05    2.1277193 -4.5634797e-08 8.5943782e-08    55.812892    55.812892    55.812892    173861.56 
  126000            0   -23764.699 -7.8457028e-05 -0.000104227 -7.0835853e-05 -6.0308229e-05    2.1277191 -1.2237474e-09 2.3327441e-10    55.812892    55.812892    55.812892    173861.56 
  126107            0   -23764.699 -7.8373235e-05 -0.00010413765 -7.0737283e-05 -6.0244771e-05    2.1277191 -3.6063368e-10 -1.0140124e-10    55.812892    55.812892    55.812892    173861.56 
Loop time of 2.41782 on 16 procs (16 MPI x 1 OpenMP) for 1283 steps with 3072 atoms

Minimization stats:
  Stopping criterion = force tolerance
  Energy initial, next-to-last, final = 
        -23764.6986431     -23764.6986533     -23764.6986533
  Force two-norm initial, final = 0.0443285 9.85745e-11
  Force max component initial, final = 0.00184821 5.86733e-12
  Final line search alpha, max atom move = 1 5.86733e-12
  Iterations, force evaluations = 1283 2566

Pair  time (%) = 2.18386 (90.3232)
Neigh time (%) = 0 (0)
Comm  time (%) = 0.167773 (6.93901)
Outpt time (%) = 0.00400932 (0.165823)
Other time (%) = 0.062186 (2.57198)

Nlocal:    192 ave 194 max 190 min
Histogram: 8 0 0 0 0 0 0 0 0 8
Nghost:    570 ave 572 max 568 min
Histogram: 8 0 0 0 0 0 0 0 0 8
Neighs:    0 ave 0 max 0 min
Histogram: 16 0 0 0 0 0 0 0 0 0
FullNghs:  11632.5 ave 11752 max 11513 min
Histogram: 8 0 0 0 0 0 0 0 0 8

Total # of neighbors = 186120
Ave neighs/atom = 60.5859
Neighbor list builds = 0
Dangerous builds = 0

# Obtain new stress tensor

variable tmp equal pxx
variable pxx1 equal ${tmp}
variable pxx1 equal -0.00010413765243433
variable tmp equal pyy
variable pyy1 equal ${tmp}
variable pyy1 equal -7.07372829238776e-05
variable tmp equal pzz
variable pzz1 equal ${tmp}
variable pzz1 equal -6.02447708738213e-05
variable tmp equal pxy
variable pxy1 equal ${tmp}
variable pxy1 equal 2.12771913712
variable tmp equal pxz
variable pxz1 equal ${tmp}
variable pxz1 equal -3.60633678365414e-10
variable tmp equal pyz
variable pyz1 equal ${tmp}
variable pyz1 equal -1.01401237844129e-10

# Compute elastic constant from pressure tensor

variable C1neg equal ${d1}
variable C1neg equal -0.00104137817603188
variable C2neg equal ${d2}
variable C2neg equal -0.000707373870670167
variable C3neg equal ${d3}
variable C3neg equal -0.000602446924227062
variable C4neg equal ${d4}
variable C4neg equal 3.42129528028986e-08
variable C5neg equal ${d5}
variable C5neg equal 9.04356380856452e-08
variable C6neg equal ${d6}
variable C6neg equal 21.2771914747622

# Reset box and simulation parameters

clear
  using 1 OpenMP thread(s) per MPI task
box tilt large
read_restart restart.equil
  triclinic box = (-27.9064 -27.9064 -27.9064) to (27.9064 27.9064 27.9064) with tilt (0 0 0)
  2 by 2 by 4 MPI processor grid
  3072 atoms
include potential.mod
# NOTE: This script can be modified for different pair styles
# See in.elastic for more info.

# Choose potential
pair_style     rebo
pair_coeff     * * CH.airebo  C
Reading potential file CH.airebo with DATE: 2011-10-25

#pair_style     lcbop
#pair_coeff     C.lcbop
#pair_style     tersoff
#pair_coeff     BNC.tersoff


# Setup neighbor style
neighbor 1.0 nsq
neigh_modify once no every 1 delay 0 check yes

# Setup minimization style
min_style	     cg
min_modify	     dmax ${dmax} line quadratic
min_modify	     dmax 0.01 line quadratic

# Setup output
thermo		500
thermo_style custom step temp pe press pxx pyy pzz pxy pxz pyz lx ly lz vol
thermo_modify norm no


# Output
dump            1 all xtc 100 traj.xtc
dump            2 all xyz 2000 relaxed.xyz
#dump            4 all atom 10 dump.atom

# Positive deformation

variable delta equal ${up}*${len0}
variable delta equal 1.0e-5*${len0}
variable delta equal 1.0e-5*55.8128916161328
variable deltaxy equal ${up}*xy
variable deltaxy equal 1.0e-5*xy
variable deltaxz equal ${up}*xz
variable deltaxz equal 1.0e-5*xz
variable deltayz equal ${up}*yz
variable deltayz equal 1.0e-5*yz
if "${dir} == 1" then    "change_box all x delta 0 ${delta} xy delta ${deltaxy} xz delta ${deltaxz} remap units box"
if "${dir} == 2" then    "change_box all y delta 0 ${delta} yz delta ${deltayz} remap units box"
if "${dir} == 3" then    "change_box all z delta 0 ${delta} remap units box"
if "${dir} == 4" then    "change_box all yz delta ${delta} remap units box"
if "${dir} == 5" then    "change_box all xz delta ${delta} remap units box"
if "${dir} == 6" then    "change_box all xy delta ${delta} remap units box"
change_box all xy delta ${delta} remap units box
change_box all xy delta 0.000558128916161328 remap units box
  triclinic box = (-27.9064 -27.9064 -27.9064) to (27.9064 27.9064 27.9064) with tilt (0.000558129 0 0)

# Relax atoms positions

minimize ${etol} ${ftol} ${maxiter} ${maxeval}
minimize 0 ${ftol} ${maxiter} ${maxeval}
minimize 0 1e-10 ${maxiter} ${maxeval}
minimize 0 1e-10 10000000 ${maxeval}
minimize 0 1e-10 10000000 10000000
Neighbor list info ...
  1 neighbor list requests
  update every 1 steps, delay 0 steps, check yes
  master list distance cutoff = 7
Memory usage per processor = 3.83147 Mbytes
Step Temp PotEng Press Pxx Pyy Pzz Pxy Pxz Pyz Lx Ly Lz Volume 
  124824            0   -23764.699 0.0033212603   0.09171975  -0.12667651  0.044920539   -4.5009243 -0.039632321 -0.041706684    55.812892    55.812892    55.812892    173861.56 
  125000            0   -23764.699 -0.00010351989 2.4675415e-05 0.00011002701 -0.00044526209   -2.1300713 -5.7261558e-05 2.9084035e-05    55.812892    55.812892    55.812892    173861.56 
  125500            0   -23764.699 -6.5964105e-05 -9.2520664e-05 -5.8656853e-05 -4.6714797e-05   -2.1277192 -6.5103253e-09 8.0472592e-09    55.812892    55.812892    55.812892    173861.56 
  126000            0   -23764.699 -7.8459158e-05 -0.00010423134 -7.083888e-05 -6.0307256e-05   -2.1277191 -9.6573855e-10 2.6472034e-10    55.812892    55.812892    55.812892    173861.56 
  126108            0   -23764.699 -7.8372509e-05 -0.00010413722 -7.0736616e-05 -6.0243692e-05   -2.1277191 -1.0574736e-11 2.5771416e-10    55.812892    55.812892    55.812892    173861.56 
Loop time of 2.41356 on 16 procs (16 MPI x 1 OpenMP) for 1284 steps with 3072 atoms

Minimization stats:
  Stopping criterion = force tolerance
  Energy initial, next-to-last, final = 
        -23764.6986431     -23764.6986533     -23764.6986533
  Force two-norm initial, final = 0.0445506 9.72486e-11
  Force max component initial, final = 0.0016636 7.4719e-12
  Final line search alpha, max atom move = 1 7.4719e-12
  Iterations, force evaluations = 1284 2568

Pair  time (%) = 2.18399 (90.4882)
Neigh time (%) = 0 (0)
Comm  time (%) = 0.159478 (6.60758)
Outpt time (%) = 0.00390446 (0.161772)
Other time (%) = 0.0661917 (2.74249)

Nlocal:    192 ave 194 max 190 min
Histogram: 8 0 0 0 0 0 0 0 0 8
Nghost:    570 ave 572 max 568 min
Histogram: 8 0 0 0 0 0 0 0 0 8
Neighs:    0 ave 0 max 0 min
Histogram: 16 0 0 0 0 0 0 0 0 0
FullNghs:  11632.5 ave 11752 max 11513 min
Histogram: 8 0 0 0 0 0 0 0 0 8

Total # of neighbors = 186120
Ave neighs/atom = 60.5859
Neighbor list builds = 0
Dangerous builds = 0

# Obtain new stress tensor

variable tmp equal pe
variable e1 equal ${tmp}
variable e1 equal -23764.6986532842
variable tmp equal press
variable p1 equal ${tmp}
variable p1 equal -7.83725093524951e-05
variable tmp equal pxx
variable pxx1 equal ${tmp}
variable pxx1 equal -0.000104137220130627
variable tmp equal pyy
variable pyy1 equal ${tmp}
variable pyy1 equal -7.07366155369268e-05
variable tmp equal pzz
variable pzz1 equal ${tmp}
variable pzz1 equal -6.02436923899318e-05
variable tmp equal pxy
variable pxy1 equal ${tmp}
variable pxy1 equal -2.1277191373838
variable tmp equal pxz
variable pxz1 equal ${tmp}
variable pxz1 equal -1.05747355956587e-11
variable tmp equal pyz
variable pyz1 equal ${tmp}
variable pyz1 equal 2.5771416385488e-10

# Compute elastic constant from pressure tensor

variable C1pos equal ${d1}
variable C1pos equal 0.00104137385299485
variable C2pos equal ${d2}
variable C2pos equal 0.000707367196800659
variable C3pos equal ${d3}
variable C3pos equal 0.000602436139388167
variable C4pos equal ${d4}
variable C4pos equal -3.78041068198887e-08
variable C5pos equal ${d5}
variable C5pos equal -9.39362275133427e-08
variable C6pos equal ${d6}
variable C6pos equal 21.2771912702758

# Combine positive and negative

variable C1${dir} equal 0.5*(${C1neg}+${C1pos})
variable C16 equal 0.5*(${C1neg}+${C1pos})
variable C16 equal 0.5*(-0.00104137817603188+${C1pos})
variable C16 equal 0.5*(-0.00104137817603188+0.00104137385299485)
variable C2${dir} equal 0.5*(${C2neg}+${C2pos})
variable C26 equal 0.5*(${C2neg}+${C2pos})
variable C26 equal 0.5*(-0.000707373870670167+${C2pos})
variable C26 equal 0.5*(-0.000707373870670167+0.000707367196800659)
variable C3${dir} equal 0.5*(${C3neg}+${C3pos})
variable C36 equal 0.5*(${C3neg}+${C3pos})
variable C36 equal 0.5*(-0.000602446924227062+${C3pos})
variable C36 equal 0.5*(-0.000602446924227062+0.000602436139388167)
variable C4${dir} equal 0.5*(${C4neg}+${C4pos})
variable C46 equal 0.5*(${C4neg}+${C4pos})
variable C46 equal 0.5*(3.42129528028986e-08+${C4pos})
variable C46 equal 0.5*(3.42129528028986e-08+-3.78041068198887e-08)
variable C5${dir} equal 0.5*(${C5neg}+${C5pos})
variable C56 equal 0.5*(${C5neg}+${C5pos})
variable C56 equal 0.5*(9.04356380856452e-08+${C5pos})
variable C56 equal 0.5*(9.04356380856452e-08+-9.39362275133427e-08)
variable C6${dir} equal 0.5*(${C6neg}+${C6pos})
variable C66 equal 0.5*(${C6neg}+${C6pos})
variable C66 equal 0.5*(21.2771914747622+${C6pos})
variable C66 equal 0.5*(21.2771914747622+21.2771912702758)

# Delete dir to make sure it is not reused

variable dir delete

# Output final values

variable C11all equal ${C11}
variable C11all equal 17.1370378757842
variable C22all equal ${C22}
variable C22all equal 17.1370378760183
variable C33all equal ${C33}
variable C33all equal 17.1370378747106

variable C12all equal 0.5*(${C12}+${C21})
variable C12all equal 0.5*(7.10748719308078+${C21})
variable C12all equal 0.5*(7.10748719308078+7.10748718836891)
variable C13all equal 0.5*(${C13}+${C31})
variable C13all equal 0.5*(7.10748719177773+${C31})
variable C13all equal 0.5*(7.10748719177773+7.10748718489445)
variable C23all equal 0.5*(${C23}+${C32})
variable C23all equal 0.5*(7.10748719074071+${C32})
variable C23all equal 0.5*(7.10748719074071+7.10748719097371)

variable C44all equal ${C44}
variable C44all equal 21.2771913728038
variable C55all equal ${C55}
variable C55all equal 21.2771913727853
variable C66all equal ${C66}
variable C66all equal 21.277191372519

variable C14all equal 0.5*(${C14}+${C41})
variable C14all equal 0.5*(4.72220874751274e-09+${C41})
variable C14all equal 0.5*(4.72220874751274e-09+-2.19075640438535e-09)
variable C15all equal 0.5*(${C15}+${C51})
variable C15all equal 0.5*(8.0169918999836e-10+${C51})
variable C15all equal 0.5*(8.0169918999836e-10+-4.13617289846654e-10)
variable C16all equal 0.5*(${C16}+${C61})
variable C16all equal 0.5*(-2.16151851495719e-09+${C61})
variable C16all equal 0.5*(-2.16151851495719e-09+9.17572014343502e-10)

variable C24all equal 0.5*(${C24}+${C42})
variable C24all equal 0.5*(4.1414986149714e-09+${C42})
variable C24all equal 0.5*(4.1414986149714e-09+-1.4538109052995e-10)
variable C25all equal 0.5*(${C25}+${C52})
variable C25all equal 0.5*(2.9419372775028e-09+${C52})
variable C25all equal 0.5*(2.9419372775028e-09+-1.053568090259e-09)
variable C26all equal 0.5*(${C26}+${C62})
variable C26all equal 0.5*(-3.336934754016e-09+${C62})
variable C26all equal 0.5*(-3.336934754016e-09+-8.99171660928346e-10)

variable C34all equal 0.5*(${C34}+${C43})
variable C34all equal 0.5*(4.96304589499242e-09+${C43})
variable C34all equal 0.5*(4.96304589499242e-09+-8.30669142502202e-10)
variable C35all equal 0.5*(${C35}+${C53})
variable C35all equal 0.5*(2.92691820650073e-09+${C53})
variable C35all equal 0.5*(2.92691820650073e-09+1.5331328328815e-09)
variable C36all equal 0.5*(${C36}+${C63})
variable C36all equal 0.5*(-5.39241944754734e-09+${C63})
variable C36all equal 0.5*(-5.39241944754734e-09+-1.34038783575735e-09)

variable C45all equal 0.5*(${C45}+${C54})
variable C45all equal 0.5*(7.78290718104651e-10+${C54})
variable C45all equal 0.5*(7.78290718104651e-10+1.67530166826425e-09)
variable C46all equal 0.5*(${C46}+${C64})
variable C46all equal 0.5*(-1.79557700849505e-09+${C64})
variable C46all equal 0.5*(-1.79557700849505e-09+1.0858747457245e-09)
variable C56all equal 0.5*(${C56}+${C65})
variable C56all equal 0.5*(-1.75029471384875e-09+${C65})
variable C56all equal 0.5*(-1.75029471384875e-09+-1.4773527670405e-09)

# Average moduli for cubic crystals

variable C11cubic equal (${C11all}+${C22all}+${C33all})/3.0
variable C11cubic equal (17.1370378757842+${C22all}+${C33all})/3.0
variable C11cubic equal (17.1370378757842+17.1370378760183+${C33all})/3.0
variable C11cubic equal (17.1370378757842+17.1370378760183+17.1370378747106)/3.0
variable C12cubic equal (${C12all}+${C13all}+${C23all})/3.0
variable C12cubic equal (7.10748719072484+${C13all}+${C23all})/3.0
variable C12cubic equal (7.10748719072484+7.10748718833609+${C23all})/3.0
variable C12cubic equal (7.10748719072484+7.10748718833609+7.10748719085721)/3.0
variable C44cubic equal (${C44all}+${C55all}+${C66all})/3.0
variable C44cubic equal (21.2771913728038+${C55all}+${C66all})/3.0
variable C44cubic equal (21.2771913728038+21.2771913727853+${C66all})/3.0
variable C44cubic equal (21.2771913728038+21.2771913727853+21.277191372519)/3.0

variable bulkmodulus equal (${C11cubic}+2*${C12cubic})/3.0
variable bulkmodulus equal (17.1370378755044+2*${C12cubic})/3.0
variable bulkmodulus equal (17.1370378755044+2*7.10748718997271)/3.0
variable shearmodulus1 equal ${C44cubic}
variable shearmodulus1 equal 21.2771913727027
variable shearmodulus2 equal (${C11cubic}-${C12cubic})/2.0
variable shearmodulus2 equal (17.1370378755044-${C12cubic})/2.0
variable shearmodulus2 equal (17.1370378755044-7.10748718997271)/2.0
variable poissonratio equal 1.0/(1.0+${C11cubic}/${C12cubic})
variable poissonratio equal 1.0/(1.0+17.1370378755044/${C12cubic})
variable poissonratio equal 1.0/(1.0+17.1370378755044/7.10748718997271)

# For Stillinger-Weber silicon, the analytical results
# are known to be (E. R. Cowley, 1988):
#               C11 = 151.4 GPa
#               C12 = 76.4 GPa
#               C44 = 56.4 GPa

print "========================================="
=========================================
print "Components of the Elastic Constant Tensor"
Components of the Elastic Constant Tensor
print "========================================="
=========================================

print "Elastic Constant C11all = ${C11all} ${cunits}"
Elastic Constant C11all = 17.1370378757842 GPa
print "Elastic Constant C22all = ${C22all} ${cunits}"
Elastic Constant C22all = 17.1370378760183 GPa
print "Elastic Constant C33all = ${C33all} ${cunits}"
Elastic Constant C33all = 17.1370378747106 GPa

print "Elastic Constant C12all = ${C12all} ${cunits}"
Elastic Constant C12all = 7.10748719072484 GPa
print "Elastic Constant C13all = ${C13all} ${cunits}"
Elastic Constant C13all = 7.10748718833609 GPa
print "Elastic Constant C23all = ${C23all} ${cunits}"
Elastic Constant C23all = 7.10748719085721 GPa

print "Elastic Constant C44all = ${C44all} ${cunits}"
Elastic Constant C44all = 21.2771913728038 GPa
print "Elastic Constant C55all = ${C55all} ${cunits}"
Elastic Constant C55all = 21.2771913727853 GPa
print "Elastic Constant C66all = ${C66all} ${cunits}"
Elastic Constant C66all = 21.277191372519 GPa

print "Elastic Constant C14all = ${C14all} ${cunits}"
Elastic Constant C14all = 1.2657261715637e-09 GPa
print "Elastic Constant C15all = ${C15all} ${cunits}"
Elastic Constant C15all = 1.94040950075853e-10 GPa
print "Elastic Constant C16all = ${C16all} ${cunits}"
Elastic Constant C16all = -6.21973250306844e-10 GPa

print "Elastic Constant C24all = ${C24all} ${cunits}"
Elastic Constant C24all = 1.99805876222073e-09 GPa
print "Elastic Constant C25all = ${C25all} ${cunits}"
Elastic Constant C25all = 9.441845936219e-10 GPa
print "Elastic Constant C26all = ${C26all} ${cunits}"
Elastic Constant C26all = -2.11805320747217e-09 GPa

print "Elastic Constant C34all = ${C34all} ${cunits}"
Elastic Constant C34all = 2.06618837624511e-09 GPa
print "Elastic Constant C35all = ${C35all} ${cunits}"
Elastic Constant C35all = 2.23002551969111e-09 GPa
print "Elastic Constant C36all = ${C36all} ${cunits}"
Elastic Constant C36all = -3.36640364165234e-09 GPa

print "Elastic Constant C45all = ${C45all} ${cunits}"
Elastic Constant C45all = 1.22679619318445e-09 GPa
print "Elastic Constant C46all = ${C46all} ${cunits}"
Elastic Constant C46all = -3.54851131385275e-10 GPa
print "Elastic Constant C56all = ${C56all} ${cunits}"
Elastic Constant C56all = -1.61382374044463e-09 GPa

print "========================================="
=========================================
print "Average properties for a cubic crystal"
Average properties for a cubic crystal
print "========================================="
=========================================

print "Bulk Modulus = ${bulkmodulus} ${cunits}"
Bulk Modulus = 10.4506707518166 GPa
print "Shear Modulus 1 = ${shearmodulus1} ${cunits}"
Shear Modulus 1 = 21.2771913727027 GPa
print "Shear Modulus 2 = ${shearmodulus2} ${cunits}"
Shear Modulus 2 = 5.01477534276585 GPa
print "Poisson Ratio = ${poissonratio}"
Poisson Ratio = 0.293158441783353
print "Deformation size: ${up}"
Deformation size: 1.0e-5

print "Lattice_type	lattice_constant	bulk_modulus	poisson	     c11	     c12         c44	" file elastic_constants.out
Lattice_type	lattice_constant	bulk_modulus	poisson	     c11	     c12         c44	
print "${lattype}    ${latconst}    ${bulkmodulus}     ${poissonratio}     ${C11all}     ${C12all}     ${C44all}" append elastic_constants.out
sc    10.0    10.4506707518166     0.293158441783353     17.1370378757842     7.10748719072484     21.2771913728038
