3072
Atoms. Timestep: 126000
1 9.47053 9.02181 22.8038
1 18.9498 5.18621 18.5509
1 4.97056 11.2675 25.2273
1 12.0551 4.703 25.2669
1 11.9131 11.5305 18.3355
1 16.7495 2.68647 23.0661
1 23.1033 2.66659 15.8094
1 16.2248 9.62094 16.2398
1 11.9506 8.16059 21.8996
1 8.29104 11.2805 21.6522
1 8.46946 7.95781 25.1897
1 19.8057 6.23957 16.1019
1 16.82 6.34893 19.8809
1 19.9526 2.72905 19.4468
1 2.76339 12.4828 26.5496
1 6.40983 9.28414 26.514
1 6.01943 12.3852 22.8674
1 9.90287 5.95598 26.5216
1 13.4333 2.61076 26.5663
1 13.2018 5.9386 23.0741
1 9.48726 12.5364 19.3938
1 13.2372 9.55913 19.9461
1 12.3937 12.1647 15.4276
1 15.5039 1.34733 25.2235
1 18.6901 1.39337 21.5567
1 15.6772 5.06616 22.1107
1 21.8528 1.38877 17.9229
1 25.207 1.35337 14.4255
1 21.9563 5.00868 14.7811
1 15.6453 8.59644 18.8642
1 18.436 8.43326 14.9144
1 14.352 11.2266 14.418
1 8.29707 9.53818 23.3549
1 10.0927 7.92449 23.4094
1 10.0632 9.67001 21.7156
1 18.4687 4.60464 19.7313
1 19.9956 4.57028 17.8644
1 18.3501 6.32591 18.0033
1 6.05794 10.6776 24.5739
1 4.33874 12.37 24.6561
1 4.61118 10.8951 26.5249
1 13.24 4.19257 24.737
1 11.3866 5.75625 24.6399
1 11.6584 4.2844 26.5367
1 13.1945 11.0604 17.986
1 11.1788 12.5037 17.5943
1 11.3248 10.9694 19.5165
1 17.3542 3.34838 21.9925
1 15.636 3.2406 23.6984
1 17.1173 1.37962 23.395
1 23.6433 3.23697 14.6605
1 22.0715 3.31544 16.4914
1 23.4984 1.37618 16.1585
1 16.5237 10.0186 14.8971
1 15.1926 10.1854 17.0182
1 16.985 8.56092 16.853
1 13.2283 7.75967 21.5102
1 11.3165 9.24883 21.2884
1 11.3184 7.46372 22.9287
1 9.47565 10.7808 21.0975
1 7.74231 12.453 21.1238
1 7.70708 10.6656 22.7738
1 9.57135 7.36008 24.5761
1 7.80106 9.0061 24.5507
1 8.16547 7.63283 26.5145
1 20.219 6.73498 14.8618
1 18.7348 6.85578 16.7629
1 20.4447 5.12012 16.6598
1 17.2962 6.91766 18.6889
1 15.6897 6.86777 20.5134
1 17.3955 5.18879 20.4041
1 20.5153 3.36083 18.3351
1 18.9622 3.37747 20.1841
1 20.2536 1.39345 19.7226
1 1.61868 13.0697 27.1925
1 3.59438 11.5715 27.2115
1 3.22094 12.9236 25.2985
1 5.432 9.99714 27.2087
1 7.21306 8.37894 27.208
1 6.71889 9.61336 25.1911
1 4.90783 12.9429 23.5113
1 6.57535 11.2149 23.3873
1 6.6201 13.0026 21.7591
1 8.94917 6.70919 27.2078
1 10.6781 5.01887 27.2082
1 10.2422 6.31275 25.2142
1 12.4265 3.33219 27.2123
1 14.124 1.54107 27.2006
1 13.882 3.11228 25.3441
1 11.9527 6.36933 23.5221
1 13.8302 4.83676 23.6515
1 13.8459 6.64054 22.0598
1 8.34669 13.0759 20.0145
1 10.0812 11.4161 19.991
1 10.0537 13.1096 18.2288
1 11.9472 9.94331 20.2588
1 13.8833 8.47145 20.516
1 13.8311 10.1718 18.8853
1 11.4868 12.896 16.2569
1 14.0529 11.0399 16.8362
1 12.3069 12.2814 14.0055
1 14.8869 0.704824 26.3328
1 16.4317 0.695364 24.4047
1 15.0376 2.58685 24.7776
1 17.9983 0.698669 22.5516
1 19.5495 0.698532 20.7058
1 18.3825 2.72878 21.2798
1 15.0609 4.39518 23.1671
1 16.8392 4.56069 21.5254
1 15.0825 6.20816 21.5796
1 21.1299 0.697562 18.8931
1 22.7641 0.696479 17.1284
1 21.5185 2.70902 17.6191
1 24.4522 0.693356 15.398
1 21.5046 4.49413 15.9962
1 15.0976 8.01295 20.0001
1 16.677 8.0379 18.1328
1 15.0108 9.67397 18.3272
1 18.0549 7.94879 16.1751
1 13.6311 11.4643 15.6375
1 -9.46998 -9.02181 22.8038
1 -9.46981 9.02184 -22.8038
1 -9.46981 9.02184 22.8038
1 -9.02175 -22.8038 -9.47015
1 -9.02175 -22.8038 9.47015
1 -9.02134 22.8038 -9.4702
1 -9.02134 22.8038 9.4702
1 -22.8037 -9.47019 -9.02184
1 -22.8037 -9.47019 9.02184
1 -22.8034 9.47015 -9.0218
1 -22.8034 9.47015 9.0218
1 22.8039 -9.47015 -9.0218
1 22.8039 -9.47015 9.0218
1 22.8042 9.47019 -9.02184
1 22.8042 9.47019 9.02184
1 9.0219 -22.8038 -9.4702
1 9.0219 -22.8038 9.4702
1 9.02231 22.8038 -9.47015
1 9.02231 22.8038 9.47015
1 9.47037 -9.02184 -22.8038
1 9.47037 -9.02184 22.8038
1 9.47053 9.02181 -22.8038
1 -9.46998 -9.02181 -22.8038
1 -18.9493 -5.1862 18.5509
1 -18.9491 5.18614 -18.5507
1 -18.9491 5.18614 18.5507
1 -5.18605 -18.5508 -18.9494
1 -5.18605 -18.5508 18.9494
1 -5.18574 18.5508 -18.9495
1 -5.18574 18.5508 18.9495
1 -18.5507 -18.9495 -5.18618
1 -18.5507 -18.9495 5.18618
1 -18.5503 18.9494 -5.18616
1 -18.5503 18.9494 5.18616
1 18.5509 -18.9494 -5.18616
1 18.5509 -18.9494 5.18616
1 18.5513 18.9495 -5.18618
1 18.5513 18.9495 5.18618
1 5.18629 -18.5508 -18.9495
1 5.18629 -18.5508 18.9495
1 5.18661 18.5508 -18.9494
1 5.18661 18.5508 18.9494
1 18.9496 -5.18614 -18.5507
1 18.9496 -5.18614 18.5507
1 18.9498 5.18621 -18.5509
1 -18.9493 -5.1862 -18.5509
1 -4.97 -11.2675 25.2273
1 -4.96978 11.2674 -25.2273
1 -4.96978 11.2674 25.2273
1 -11.2674 -25.2273 -4.97014
1 -11.2674 -25.2273 4.97014
1 -11.2669 25.2273 -4.97019
1 -11.2669 25.2273 4.97019
1 -25.2271 -4.97019 -11.2675
1 -25.2271 -4.97019 11.2675
1 -25.2269 4.97015 -11.2674
1 -25.2269 4.97015 11.2674
1 25.2274 -4.97015 -11.2674
1 25.2274 -4.97015 11.2674
1 25.2276 4.97019 -11.2675
1 25.2276 4.97019 11.2675
1 11.2675 -25.2273 -4.97019
1 11.2675 -25.2273 4.97019
1 11.268 25.2273 -4.97014
1 11.268 25.2273 4.97014
1 4.97034 -11.2674 -25.2273
1 4.97034 -11.2674 25.2273
1 4.97056 11.2675 -25.2273
1 -4.97 -11.2675 -25.2273
1 -12.0546 -4.703 25.2669
1 -12.0545 4.703 -25.2669
1 -12.0545 4.703 25.2669
1 -4.70294 -25.2669 -12.0548
1 -4.70294 -25.2669 12.0548
1 -4.70251 25.267 -12.0548
1 -4.70251 25.267 12.0548
1 -25.2668 -12.0548 -4.703
1 -25.2668 -12.0548 4.703
1 -25.2665 12.0548 -4.703
1 -25.2665 12.0548 4.703
1 25.2671 -12.0548 -4.703
1 25.2671 -12.0548 4.703
1 25.2674 12.0548 -4.703
1 25.2674 12.0548 4.703
1 4.70307 -25.267 -12.0548
1 4.70307 -25.267 12.0548
1 4.70349 25.2669 -12.0548
1 4.70349 25.2669 12.0548
1 12.055 -4.703 -25.2669
1 12.055 -4.703 25.2669
1 12.0551 4.703 -25.2669
1 -12.0546 -4.703 -25.2669
1 -11.9125 -11.5305 18.3355
1 -11.9123 11.5305 -18.3355
1 -11.9123 11.5305 18.3355
1 -11.5304 -18.3355 -11.9127
1 -11.5304 -18.3355 11.9127
1 -11.53 18.3355 -11.9127
1 -11.53 18.3355 11.9127
1 -18.3354 -11.9127 -11.5306
1 -18.3354 -11.9127 11.5306
1 -18.335 11.9126 -11.5304
1 -18.335 11.9126 11.5304
1 18.3356 -11.9126 -11.5304
1 18.3356 -11.9126 11.5304
1 18.3359 11.9127 -11.5306
1 18.3359 11.9127 11.5306
1 11.5306 -18.3355 -11.9127
1 11.5306 -18.3355 11.9127
1 11.531 18.3355 -11.9127
1 11.531 18.3355 11.9127
1 11.9129 -11.5305 -18.3355
1 11.9129 -11.5305 18.3355
1 11.9131 11.5305 -18.3355
1 -11.9125 -11.5305 -18.3355
1 -16.7489 -2.68647 23.0661
1 -16.7488 2.68646 -23.066
1 -16.7488 2.68646 23.066
1 -2.68638 -23.066 -16.7491
1 -2.68638 -23.066 16.7491
1 -2.686 23.066 -16.7491
1 -2.686 23.066 16.7491
1 -23.0659 -16.7491 -2.68647
1 -23.0659 -16.7491 2.68647
1 -23.0656 16.7491 -2.68646
1 -23.0656 16.7491 2.68646
1 23.0661 -16.7491 -2.68646
1 23.0661 -16.7491 2.68646
1 23.0665 16.7491 -2.68647
1 23.0665 16.7491 2.68647
1 2.68656 -23.066 -16.7491
1 2.68656 -23.066 16.7491
1 2.68693 23.066 -16.7491
1 2.68693 23.066 16.7491
1 16.7493 -2.68646 -23.066
1 16.7493 -2.68646 23.066
1 16.7495 2.68647 -23.0661
1 -16.7489 -2.68647 -23.0661
1 -23.1027 -2.66658 15.8094
1 -23.1026 2.66653 -15.8093
1 -23.1026 2.66653 15.8093
1 -2.66642 -15.8093 -23.1029
1 -2.66642 -15.8093 23.1029
1 -2.66614 15.8093 -23.1029
1 -2.66614 15.8093 23.1029
1 -15.8093 -23.1029 -2.66656
1 -15.8093 -23.1029 2.66656
1 -15.8088 23.1029 -2.66656
1 -15.8088 23.1029 2.66656
1 15.8094 -23.1029 -2.66656
1 15.8094 -23.1029 2.66656
1 15.8098 23.1029 -2.66656
1 15.8098 23.1029 2.66656
1 2.6667 -15.8093 -23.1029
1 2.6667 -15.8093 23.1029
1 2.66697 15.8093 -23.1029
1 2.66697 15.8093 23.1029
1 23.1031 -2.66653 -15.8093
1 23.1031 -2.66653 15.8093
1 23.1033 2.66659 -15.8094
1 -23.1027 -2.66658 -15.8094
1 -16.2242 -9.62094 16.2398
1 -16.2239 9.62086 -16.2397
1 -16.2239 9.62086 16.2397
1 -9.62076 -16.2397 -16.2243
1 -9.62076 -16.2397 16.2243
1 -9.62048 16.2398 -16.2244
1 -9.62048 16.2398 16.2244
1 -16.2396 -16.2244 -9.62092
1 -16.2396 -16.2244 9.62092
1 -16.2393 16.2243 -9.62089
1 -16.2393 16.2243 9.62089
1 16.2398 -16.2243 -9.62089
1 16.2398 -16.2243 9.62089
1 16.2402 16.2244 -9.62092
1 16.2402 16.2244 9.62092
1 9.62104 -16.2398 -16.2244
1 9.62104 -16.2398 16.2244
1 9.62132 16.2397 -16.2243
1 9.62132 16.2397 16.2243
1 16.2245 -9.62086 -16.2397
1 16.2245 -9.62086 16.2397
1 16.2248 9.62094 -16.2398
1 -16.2242 -9.62094 -16.2398
1 -11.9501 -8.16059 21.8996
1 -11.9499 8.1606 -21.8996
1 -11.9499 8.1606 21.8996
1 -8.1605 -21.8996 -11.9502
1 -8.1605 -21.8996 11.9502
1 -8.16013 21.8996 -11.9503
1 -8.16013 21.8996 11.9503
1 -21.8995 -11.9503 -8.16063
1 -21.8995 -11.9503 8.16063
1 -21.8991 11.9502 -8.16056
1 -21.8991 11.9502 8.16056
1 21.8997 -11.9502 -8.16056
1 21.8997 -11.9502 8.16056
1 21.9 11.9503 -8.16063
1 21.9 11.9503 8.16063
1 8.16069 -21.8996 -11.9503
1 8.16069 -21.8996 11.9503
1 8.16106 21.8996 -11.9502
1 8.16106 21.8996 11.9502
1 11.9504 -8.1606 -21.8996
1 11.9504 -8.1606 21.8996
1 11.9506 8.16059 -21.8996
1 -11.9501 -8.16059 -21.8996
1 -8.29048 -11.2805 21.6522
1 -8.29031 11.2805 -21.6523
1 -8.29031 11.2805 21.6523
1 -11.2804 -21.6522 -8.29065
1 -11.2804 -21.6522 8.29065
1 -11.28 21.6522 -8.2907
1 -11.28 21.6522 8.2907
1 -21.6521 -8.29071 -11.2806
1 -21.6521 -8.29071 11.2806
1 -21.6518 8.29064 -11.2805
1 -21.6518 8.29064 11.2805
1 21.6524 -8.29064 -11.2805
1 21.6524 -8.29064 11.2805
1 21.6527 8.29071 -11.2806
1 21.6527 8.29071 11.2806
1 11.2806 -21.6522 -8.2907
1 11.2806 -21.6522 8.2907
1 11.281 21.6522 -8.29065
1 11.281 21.6522 8.29065
1 8.29087 -11.2805 -21.6523
1 8.29087 -11.2805 21.6523
1 8.29104 11.2805 -21.6522
1 -8.29048 -11.2805 -21.6522
1 -8.4689 -7.95781 25.1897
1 -8.46873 7.95781 -25.1898
1 -8.46873 7.95781 25.1898
1 -7.95776 -25.1898 -8.46907
1 -7.95776 -25.1898 8.46907
1 -7.9573 25.1897 -8.46911
1 -7.9573 25.1897 8.46911
1 -25.1896 -8.46909 -7.95781
1 -25.1896 -8.46909 7.95781
1 -25.1893 8.46909 -7.9578
1 -25.1893 8.46909 7.95781
1 25.1899 -8.46909 -7.9578
1 25.1899 -8.46909 7.95781
1 25.1902 8.46909 -7.95781
1 25.1902 8.46909 7.95781
1 7.95786 -25.1897 -8.46911
1 7.95786 -25.1897 8.46911
1 7.95832 25.1898 -8.46907
1 7.95832 25.1898 8.46907
1 8.46929 -7.95781 -25.1898
1 8.46929 -7.95781 25.1898
1 8.46946 7.95781 -25.1897
1 -8.4689 -7.95781 -25.1897
1 -19.8051 -6.23957 16.1019
1 -19.8049 6.23948 -16.1018
1 -19.8049 6.23948 16.1018
1 -6.23938 -16.1019 -19.8053
1 -6.23938 -16.1019 19.8053
1 -6.23911 16.1019 -19.8053
1 -6.23911 16.1019 19.8053
1 -16.1018 -19.8053 -6.23952
1 -16.1018 -19.8053 6.23952
1 -16.1014 19.8053 -6.23953
1 -16.1014 19.8053 6.23953
1 16.102 -19.8053 -6.23953
1 16.102 -19.8053 6.23953
1 16.1023 19.8053 -6.23952
1 16.1023 19.8053 6.23952
1 6.23967 -16.1019 -19.8053
1 6.23967 -16.1019 19.8053
1 6.23994 16.1019 -19.8053
1 6.23994 16.1019 19.8053
1 19.8054 -6.23947 -16.1018
1 19.8054 -6.23947 16.1018
1 19.8057 6.23957 -16.1019
1 -19.8051 -6.23957 -16.1019
1 -16.8194 -6.34893 19.8809
1 -16.8192 6.34887 -19.8808
1 -16.8192 6.34887 19.8808
1 -6.34878 -19.8808 -16.8196
1 -6.34878 -19.8808 16.8196
1 -6.34846 19.8809 -16.8196
1 -6.34846 19.8809 16.8196
1 -19.8808 -16.8196 -6.34893
1 -19.8808 -16.8196 6.34893
1 -19.8804 16.8196 -6.34887
1 -19.8804 16.8196 6.34887
1 19.8809 -16.8196 -6.34887
1 19.8809 -16.8196 6.34887
1 19.8813 16.8196 -6.34893
1 19.8813 16.8196 6.34893
1 6.34902 -19.8809 -16.8196
1 6.34902 -19.8809 16.8196
1 6.34934 19.8808 -16.8196
1 6.34934 19.8808 16.8196
1 16.8198 -6.34887 -19.8808
1 16.8198 -6.34887 19.8808
1 16.82 6.34893 -19.8809
1 -16.8194 -6.34893 -19.8809
1 -19.952 -2.72905 19.4468
1 -19.9519 2.72903 -19.4467
1 -19.9519 2.72903 19.4467
1 -2.72893 -19.4468 -19.9522
1 -2.72893 -19.4468 19.9522
1 -2.7286 19.4468 -19.9522
1 -2.7286 19.4468 19.9522
1 -19.4467 -19.9522 -2.72905
1 -19.4467 -19.9522 2.72905
1 -19.4463 19.9522 -2.72904
1 -19.4463 19.9522 2.72904
1 19.4468 -19.9522 -2.72904
1 19.4468 -19.9522 2.72904
1 19.4472 19.9522 -2.72905
1 19.4472 19.9522 2.72905
1 2.72916 -19.4468 -19.9522
1 2.72916 -19.4468 19.9522
1 2.72949 19.4468 -19.9522
1 2.72949 19.4468 19.9522
1 19.9524 -2.72903 -19.4467
1 19.9524 -2.72903 19.4467
1 19.9526 2.72905 -19.4468
1 -19.952 -2.72905 -19.4468
1 -2.76283 -12.4828 26.5496
1 -2.7626 12.4827 -26.5496
1 -2.7626 12.4827 26.5496
1 -12.4827 -26.5496 -2.76298
1 -12.4827 -26.5496 2.76298
1 -12.4822 26.5496 -2.763
1 -12.4822 26.5496 2.763
1 -26.5494 -2.763 -12.4828
1 -26.5494 -2.763 12.4828
1 -26.5493 2.76299 -12.4827
1 -26.5493 2.76299 12.4827
1 26.5498 -2.76299 -12.4827
1 26.5498 -2.76299 12.4827
1 26.5499 2.763 -12.4828
1 26.5499 2.763 12.4828
1 12.4828 -26.5496 -2.763
1 12.4828 -26.5496 2.763
1 12.4833 26.5496 -2.76298
1 12.4833 26.5496 2.76298
1 2.76315 -12.4827 -26.5496
1 2.76315 -12.4827 26.5496
1 2.76339 12.4828 -26.5496
1 -2.76283 -12.4828 -26.5496
1 -6.40928 -9.28414 26.514
1 -6.40907 9.28412 -26.5141
1 -6.40907 9.28412 26.5141
1 -9.2841 -26.5141 -6.40944
1 -9.2841 -26.5141 6.40944
1 -9.28359 26.514 -6.40947
1 -9.28359 26.514 6.40947
1 -26.5139 -6.40946 -9.28413
1 -26.5139 -6.40946 9.28413
1 -26.5137 6.40945 -9.28412
1 -26.5137 6.40945 9.28412
1 26.5142 -6.40945 -9.28412
1 26.5142 -6.40945 9.28412
1 26.5144 6.40946 -9.28413
1 26.5144 6.40946 9.28413
1 9.28415 -26.514 -6.40947
1 9.28415 -26.514 6.40947
1 9.28466 26.5141 -6.40944
1 9.28466 26.5141 6.40944
1 6.40963 -9.28412 -26.5141
1 6.40963 -9.28412 26.5141
1 6.40983 9.28414 -26.514
1 -6.40928 -9.28414 -26.514
1 -6.01887 -12.3852 22.8674
1 -6.01867 12.3852 -22.8675
1 -6.01867 12.3852 22.8675
1 -12.3851 -22.8675 -6.01902
1 -12.3851 -22.8675 6.01902
1 -12.3847 22.8675 -6.01907
1 -12.3847 22.8675 6.01907
1 -22.8673 -6.01909 -12.3852
1 -22.8673 -6.01909 12.3852
1 -22.8671 6.019 -12.3851
1 -22.8671 6.019 12.3851
1 22.8676 -6.019 -12.3851
1 22.8676 -6.019 12.3851
1 22.8679 6.01909 -12.3852
1 22.8679 6.01909 12.3852
1 12.3852 -22.8675 -6.01907
1 12.3852 -22.8675 6.01907
1 12.3857 22.8675 -6.01902
1 12.3857 22.8675 6.01902
1 6.01922 -12.3852 -22.8675
1 6.01922 -12.3852 22.8675
1 6.01943 12.3852 -22.8674
1 -6.01887 -12.3852 -22.8674
1 -9.90231 -5.95598 26.5216
1 -9.90217 5.95598 -26.5216
1 -9.90217 5.95598 26.5216
1 -5.95595 -26.5216 -9.9025
1 -5.95595 -26.5216 9.9025
1 -5.95545 26.5216 -9.90254
1 -5.95545 26.5216 9.90254
1 -26.5215 -9.90252 -5.95598
1 -26.5215 -9.90252 5.95598
1 -26.5212 9.90252 -5.95599
1 -26.5212 9.90252 5.95599
1 26.5218 -9.90252 -5.95599
1 26.5218 -9.90252 5.95599
1 26.522 9.90252 -5.95598
1 26.522 9.90252 5.95598
1 5.95601 -26.5216 -9.90254
1 5.95601 -26.5216 9.90254
1 5.95651 26.5216 -9.9025
1 5.95651 26.5216 9.9025
1 9.90273 -5.95598 -26.5216
1 9.90273 -5.95598 26.5216
1 9.90287 5.95598 -26.5216
1 -9.90231 -5.95598 -26.5216
1 -13.4328 -2.61076 26.5663
1 -13.4327 2.61078 -26.5663
1 -13.4327 2.61078 26.5663
1 -2.61072 -26.5663 -13.433
1 -2.61072 -26.5663 13.433
1 -2.61026 26.5663 -13.4331
1 -2.61026 26.5663 13.4331
1 -26.5662 -13.433 -2.61077
1 -26.5662 -13.433 2.61077
1 -26.5659 13.433 -2.61077
1 -26.5659 13.433 2.61077
1 26.5664 -13.433 -2.61077
1 26.5664 -13.433 2.61077
1 26.5667 13.433 -2.61077
1 26.5667 13.433 2.61077
1 2.61081 -26.5663 -13.4331
1 2.61081 -26.5663 13.4331
1 2.61128 26.5663 -13.433
1 2.61128 26.5663 13.433
1 13.4333 -2.61078 -26.5663
1 13.4333 -2.61078 26.5663
1 13.4333 2.61076 -26.5663
1 -13.4328 -2.61076 -26.5663
1 -13.2013 -5.9386 23.0741
1 -13.2011 5.93857 -23.0741
1 -13.2011 5.93857 23.0741
1 -5.93848 -23.074 -13.2014
1 -5.93848 -23.074 13.2014
1 -5.93813 23.0741 -13.2015
1 -5.93813 23.0741 13.2015
1 -23.074 -13.2015 -5.93861
1 -23.074 -13.2015 5.93861
1 -23.0736 13.2014 -5.93856
1 -23.0736 13.2014 5.93856
1 23.0742 -13.2014 -5.93856
1 23.0742 -13.2014 5.93856
1 23.0745 13.2015 -5.93861
1 23.0745 13.2015 5.93861
1 5.93868 -23.0741 -13.2015
1 5.93868 -23.0741 13.2015
1 5.93904 23.074 -13.2014
1 5.93904 23.074 13.2014
1 13.2017 -5.93857 -23.0741
1 13.2017 -5.93857 23.0741
1 13.2018 5.9386 -23.0741
1 -13.2013 -5.9386 -23.0741
1 -9.4867 -12.5364 19.3938
1 -9.48653 12.5364 -19.3939
1 -9.48653 12.5364 19.3939
1 -12.5363 -19.3939 -9.48688
1 -12.5363 -19.3939 9.48688
1 -12.5359 19.3939 -9.48691
1 -12.5359 19.3939 9.48691
1 -19.3938 -9.48695 -12.5365
1 -19.3938 -9.48695 12.5365
1 -19.3934 9.48684 -12.5364
1 -19.3934 9.48684 12.5364
1 19.394 -9.48684 -12.5364
1 19.394 -9.48684 12.5364
1 19.3943 9.48695 -12.5365
1 19.3943 9.48695 12.5365
1 12.5365 -19.3939 -9.48691
1 12.5365 -19.3939 9.48691
1 12.5369 19.3939 -9.48688
1 12.5369 19.3939 9.48688
1 9.48708 -12.5364 -19.3939
1 9.48708 -12.5364 19.3939
1 9.48726 12.5364 -19.3938
1 -9.4867 -12.5364 -19.3938
1 -13.2367 -9.55913 19.9461
1 -13.2365 9.55912 -19.9461
1 -13.2365 9.55912 19.9461
1 -9.55902 -19.946 -13.2368
1 -9.55902 -19.946 13.2368
1 -9.55867 19.9461 -13.2369
1 -9.55867 19.9461 13.2369
1 -19.946 -13.2369 -9.55918
1 -19.946 -13.2369 9.55918
1 -19.9456 13.2368 -9.55907
1 -19.9456 13.2368 9.55907
1 19.9461 -13.2368 -9.55907
1 19.9461 -13.2368 9.55907
1 19.9465 13.2369 -9.55918
1 19.9465 13.2369 9.55918
1 9.55923 -19.9461 -13.2369
1 9.55923 -19.9461 13.2369
1 9.55958 19.946 -13.2368
1 9.55958 19.946 13.2368
1 13.237 -9.55912 -19.9461
1 13.237 -9.55912 19.9461
1 13.2372 9.55913 -19.9461
1 -13.2367 -9.55913 -19.9461
1 -12.3932 -12.1647 15.4276
1 -12.3929 12.1648 -15.4277
1 -12.3929 12.1648 15.4277
1 -12.1646 -15.4276 -12.3933
1 -12.1646 -15.4276 12.3933
1 -12.1643 15.4277 -12.3933
1 -12.1643 15.4277 12.3933
1 -15.4276 -12.3933 -12.1648
1 -15.4276 -12.3933 12.1648
1 -15.4272 12.3933 -12.1647
1 -15.4272 12.3933 12.1647
1 15.4278 -12.3933 -12.1647
1 15.4278 -12.3933 12.1647
1 15.4281 12.3933 -12.1648
1 15.4281 12.3933 12.1648
1 12.1649 -15.4277 -12.3933
1 12.1649 -15.4277 12.3933
1 12.1652 15.4276 -12.3933
1 12.1652 15.4276 12.3933
1 12.3935 -12.1648 -15.4277
1 12.3935 -12.1648 15.4277
1 12.3937 12.1647 -15.4276
1 -12.3932 -12.1647 -15.4276
1 -15.5033 -1.34733 25.2235
1 -15.5033 1.34735 -25.2235
1 -15.5033 1.34735 25.2235
1 -1.34728 -25.2235 -15.5036
1 -1.34728 -25.2235 15.5036
1 -1.34685 25.2235 -15.5036
1 -1.34685 25.2235 15.5036
1 -25.2234 -15.5036 -1.34734
1 -25.2234 -15.5036 1.34734
1 -25.223 15.5036 -1.34734
1 -25.223 15.5036 1.34734
1 25.2236 -15.5036 -1.34734
1 25.2236 -15.5036 1.34734
1 25.2239 15.5036 -1.34734
1 25.2239 15.5036 1.34734
1 1.3474 -25.2235 -15.5036
1 1.3474 -25.2235 15.5036
1 1.34784 25.2235 -15.5036
1 1.34784 25.2235 15.5036
1 15.5038 -1.34735 -25.2235
1 15.5038 -1.34735 25.2235
1 15.5039 1.34733 -25.2235
1 -15.5033 -1.34733 -25.2235
1 -18.6896 -1.39337 21.5567
1 -18.6895 1.39338 -21.5567
1 -18.6895 1.39338 21.5567
1 -1.39327 -21.5567 -18.6898
1 -1.39327 -21.5567 18.6898
1 -1.39291 21.5567 -18.6898
1 -1.39291 21.5567 18.6898
1 -21.5566 -18.6898 -1.39337
1 -21.5566 -18.6898 1.39337
1 -21.5562 18.6898 -1.39337
1 -21.5562 18.6898 1.39337
1 21.5568 -18.6898 -1.39337
1 21.5568 -18.6898 1.39337
1 21.5572 18.6898 -1.39337
1 21.5572 18.6898 1.39337
1 1.39347 -21.5567 -18.6898
1 1.39347 -21.5567 18.6898
1 1.39383 21.5567 -18.6898
1 1.39383 21.5567 18.6898
1 18.69 -1.39338 -21.5567
1 18.69 -1.39338 21.5567
1 18.6901 1.39337 -21.5567
1 -18.6896 -1.39337 -21.5567
1 -15.6766 -5.06616 22.1107
1 -15.6764 5.06611 -22.1106
1 -15.6764 5.06611 22.1106
1 -5.06602 -22.1106 -15.6767
1 -5.06602 -22.1106 15.6767
1 -5.06569 22.1107 -15.6768
1 -5.06569 22.1107 15.6768
1 -22.1106 -15.6768 -5.06616
1 -22.1106 -15.6768 5.06616
1 -22.1102 15.6768 -5.06611
1 -22.1102 15.6768 5.06611
1 22.1107 -15.6768 -5.06611
1 22.1107 -15.6768 5.06611
1 22.1111 15.6768 -5.06616
1 22.1111 15.6768 5.06616
1 5.06625 -22.1107 -15.6768
1 5.06625 -22.1107 15.6768
1 5.06658 22.1106 -15.6767
1 5.06658 22.1106 15.6767
1 15.677 -5.06611 -22.1106
1 15.677 -5.06611 22.1106
1 15.6772 5.06616 -22.1107
1 -15.6766 -5.06616 -22.1107
1 -21.8522 -1.38877 17.9229
1 -21.8522 1.38876 -17.9228
1 -21.8522 1.38876 17.9228
1 -1.38864 -17.9228 -21.8525
1 -1.38864 -17.9228 21.8525
1 -1.38834 17.9228 -21.8525
1 -1.38834 17.9228 21.8525
1 -17.9228 -21.8525 -1.38877
1 -17.9228 -21.8525 1.38877
1 -17.9223 21.8525 -1.38876
1 -17.9223 21.8525 1.38876
1 17.9229 -21.8525 -1.38876
1 17.9229 -21.8525 1.38876
1 17.9233 21.8525 -1.38877
1 17.9233 21.8525 1.38877
1 1.38889 -17.9228 -21.8525
1 1.38889 -17.9228 21.8525
1 1.38919 17.9228 -21.8525
1 1.38919 17.9228 21.8525
1 21.8527 -1.38876 -17.9228
1 21.8527 -1.38876 17.9228
1 21.8528 1.38877 -17.9229
1 -21.8522 -1.38877 -17.9229
1 -25.2064 -1.35337 14.4255
1 -25.2063 1.35334 -14.4254
1 -25.2063 1.35334 14.4254
1 -1.3532 -14.4254 -25.2066
1 -1.3532 -14.4254 25.2066
1 -1.35295 14.4254 -25.2066
1 -1.35295 14.4254 25.2066
1 -14.4254 -25.2066 -1.35335
1 -14.4254 -25.2066 1.35335
1 -14.4249 25.2066 -1.35336
1 -14.4249 25.2066 1.35336
1 14.4255 -25.2066 -1.35336
1 14.4255 -25.2066 1.35336
1 14.426 25.2066 -1.35335
1 14.426 25.2066 1.35335
1 1.35351 -14.4254 -25.2066
1 1.35351 -14.4254 25.2066
1 1.35376 14.4254 -25.2066
1 1.35376 14.4254 25.2066
1 25.2069 -1.35334 -14.4254
1 25.2069 -1.35334 14.4254
1 25.207 1.35337 -14.4255
1 -25.2064 -1.35337 -14.4255
1 -21.9557 -5.00868 14.7811
1 -21.9555 5.00859 -14.781
1 -21.9555 5.00859 14.781
1 -5.00848 -14.7811 -21.9559
1 -5.00848 -14.7811 21.9559
1 -5.00823 14.7811 -21.9559
1 -5.00823 14.7811 21.9559
1 -14.781 -21.9559 -5.00862
1 -14.781 -21.9559 5.00862
1 -14.7806 21.9559 -5.00865
1 -14.7806 21.9559 5.00865
1 14.7811 -21.9559 -5.00865
1 14.7811 -21.9559 5.00865
1 14.7816 21.9559 -5.00862
1 14.7816 21.9559 5.00862
1 5.00879 -14.7811 -21.9559
1 5.00879 -14.7811 21.9559
1 5.00904 14.7811 -21.9559
1 5.00904 14.7811 21.9559
1 21.956 -5.00859 -14.781
1 21.956 -5.00859 14.781
1 21.9563 5.00868 -14.7811
1 -21.9557 -5.00868 -14.7811
1 -15.6447 -8.59644 18.8642
1 -15.6445 8.59637 -18.8641
1 -15.6445 8.59637 18.8641
1 -8.59628 -18.8642 -15.6449
1 -8.59628 -18.8642 15.6449
1 -8.59597 18.8642 -15.6449
1 -8.59597 18.8642 15.6449
1 -18.8641 -15.6449 -8.59645
1 -18.8641 -15.6449 8.59645
1 -18.8637 15.6448 -8.59636
1 -18.8637 15.6448 8.59636
1 18.8643 -15.6448 -8.59636
1 18.8643 -15.6448 8.59636
1 18.8647 15.6449 -8.59645
1 18.8647 15.6449 8.59645
1 8.59653 -18.8642 -15.6449
1 8.59653 -18.8642 15.6449
1 8.59684 18.8642 -15.6449
1 8.59684 18.8642 15.6449
1 15.645 -8.59637 -18.8641
1 15.645 -8.59637 18.8641
1 15.6453 8.59644 -18.8642
1 -15.6447 -8.59644 -18.8642
1 -18.4354 -8.43326 14.9144
1 -18.4351 8.43315 -14.9143
1 -18.4351 8.43315 14.9143
1 -8.43304 -14.9143 -18.4355
1 -8.43304 -14.9143 18.4355
1 -8.43281 14.9143 -18.4356
1 -8.43281 14.9143 18.4356
1 -14.9142 -18.4356 -8.4332
1 -14.9142 -18.4356 8.4332
1 -14.9139 18.4356 -8.43321
1 -14.9139 18.4356 8.43321
1 14.9144 -18.4356 -8.43321
1 14.9144 -18.4356 8.43321
1 14.9148 18.4356 -8.4332
1 14.9148 18.4356 8.4332
1 8.43337 -14.9143 -18.4356
1 8.43337 -14.9143 18.4356
1 8.4336 14.9143 -18.4355
1 8.4336 14.9143 18.4355
1 18.4357 -8.43315 -14.9143
1 18.4357 -8.43315 14.9143
1 18.436 8.43326 -14.9144
1 -18.4354 -8.43326 -14.9144
1 -14.3514 -11.2266 14.418
1 -14.3511 11.2266 -14.418
1 -14.3511 11.2266 14.418
1 -11.2265 -14.418 -14.3515
1 -11.2265 -14.418 14.3515
1 -11.2262 14.418 -14.3516
1 -11.2262 14.418 14.3516
1 -14.4179 -14.3515 -11.2266
1 -14.4179 -14.3515 11.2266
1 -14.4175 14.3515 -11.2266
1 -14.4175 14.3515 11.2266
1 14.4181 -14.3515 -11.2266
1 14.4181 -14.3515 11.2266
1 14.4184 14.3515 -11.2266
1 14.4184 14.3515 11.2266
1 11.2267 -14.418 -14.3516
1 11.2267 -14.418 14.3516
1 11.227 14.418 -14.3515
1 11.227 14.418 14.3515
1 14.3517 -11.2266 -14.418
1 14.3517 -11.2266 14.418
1 14.352 11.2266 -14.418
1 -14.3514 -11.2266 -14.418
1 -8.29651 -9.53818 23.3549
1 -8.29634 9.53821 -23.355
1 -8.29634 9.53821 23.355
1 -9.53813 -23.3549 -8.29668
1 -9.53813 -23.3549 8.29668
1 -9.53771 23.3549 -8.29673
1 -9.53771 23.3549 8.29673
1 -23.3548 -8.29672 -9.53822
1 -23.3548 -8.29672 9.53822
1 -23.3545 8.29669 -9.53818
1 -23.3545 8.29669 9.53818
1 23.3551 -8.29669 -9.53818
1 23.3551 -8.29669 9.53818
1 23.3553 8.29672 -9.53822
1 23.3553 8.29672 9.53822
1 9.53827 -23.3549 -8.29673
1 9.53827 -23.3549 8.29673
1 9.53869 23.3549 -8.29668
1 9.53869 23.3549 8.29668
1 8.2969 -9.53821 -23.355
1 8.2969 -9.53821 23.355
1 8.29707 9.53818 -23.3549
1 -8.29651 -9.53818 -23.3549
1 -10.0922 -7.92449 23.4094
1 -10.092 7.92451 -23.4094
1 -10.092 7.92451 23.4094
1 -7.92443 -23.4094 -10.0923
1 -7.92443 -23.4094 10.0923
1 -7.92401 23.4094 -10.0924
1 -7.92401 23.4094 10.0924
1 -23.4093 -10.0924 -7.92451
1 -23.4093 -10.0924 7.92451
1 -23.409 10.0924 -7.92448
1 -23.409 10.0924 7.92448
1 23.4096 -10.0924 -7.92448
1 23.4096 -10.0924 7.92448
1 23.4098 10.0924 -7.92451
1 23.4098 10.0924 7.92451
1 7.92457 -23.4094 -10.0924
1 7.92457 -23.4094 10.0924
1 7.92498 23.4094 -10.0923
1 7.92498 23.4094 10.0923
1 10.0926 -7.92451 -23.4094
1 10.0926 -7.92451 23.4094
1 10.0927 7.92449 -23.4094
1 -10.0922 -7.92449 -23.4094
1 -10.0626 -9.67001 21.7156
1 -10.0625 9.67005 -21.7157
1 -10.0625 9.67005 21.7157
1 -9.66995 -21.7156 -10.0628
1 -9.66995 -21.7156 10.0628
1 -9.66955 21.7156 -10.0629
1 -9.66955 21.7156 10.0629
1 -21.7155 -10.0629 -9.67006
1 -21.7155 -10.0629 9.67007
1 -21.7152 10.0628 -9.67
1 -21.7152 10.0628 9.67
1 21.7158 -10.0628 -9.67
1 21.7158 -10.0628 9.67
1 21.7161 10.0629 -9.67006
1 21.7161 10.0629 9.67007
1 9.67011 -21.7156 -10.0629
1 9.67011 -21.7156 10.0629
1 9.67051 21.7156 -10.0628
1 9.67051 21.7156 10.0628
1 10.063 -9.67005 -21.7157
1 10.063 -9.67005 21.7157
1 10.0632 9.67001 -21.7156
1 -10.0626 -9.67001 -21.7156
1 -18.4681 -4.60464 19.7313
1 -18.4679 4.60459 -19.7312
1 -18.4679 4.60459 19.7312
1 -4.6045 -19.7312 -18.4683
1 -4.6045 -19.7312 18.4683
1 -4.60417 19.7313 -18.4683
1 -4.60417 19.7313 18.4683
1 -19.7312 -18.4683 -4.60463
1 -19.7312 -18.4683 4.60463
1 -19.7308 18.4683 -4.6046
1 -19.7308 18.4683 4.6046
1 19.7313 -18.4683 -4.6046
1 19.7313 -18.4683 4.6046
1 19.7317 18.4683 -4.60463
1 19.7317 18.4683 4.60463
1 4.60473 -19.7313 -18.4683
1 4.60473 -19.7313 18.4683
1 4.60506 19.7312 -18.4683
1 4.60506 19.7312 18.4683
1 18.4685 -4.60459 -19.7312
1 18.4685 -4.60459 19.7312
1 18.4687 4.60464 -19.7313
1 -18.4681 -4.60464 -19.7313
1 -19.9951 -4.57028 17.8644
1 -19.9949 4.57022 -17.8643
1 -19.9949 4.57022 17.8643
1 -4.57012 -17.8643 -19.9952
1 -4.57012 -17.8643 19.9952
1 -4.56982 17.8644 -19.9953
1 -4.56982 17.8644 19.9953
1 -17.8643 -19.9953 -4.57025
1 -17.8643 -19.9953 4.57025
1 -17.8639 19.9952 -4.57024
1 -17.8639 19.9952 4.57024
1 17.8644 -19.9952 -4.57024
1 17.8644 -19.9952 4.57024
1 17.8648 19.9953 -4.57025
1 17.8648 19.9953 4.57025
1 4.57037 -17.8644 -19.9953
1 4.57037 -17.8644 19.9953
1 4.57068 17.8643 -19.9952
1 4.57068 17.8643 19.9952
1 19.9954 -4.57022 -17.8643
1 19.9954 -4.57022 17.8643
1 19.9956 4.57028 -17.8644
1 -19.9951 -4.57028 -17.8644
1 -18.3496 -6.32591 18.0033
1 -18.3493 6.32583 -18.0032
1 -18.3493 6.32583 18.0032
1 -6.32575 -18.0032 -18.3497
1 -6.32575 -18.0032 18.3497
1 -6.32544 18.0032 -18.3497
1 -6.32544 18.0032 18.3497
1 -18.0031 -18.3497 -6.32589
1 -18.0031 -18.3497 6.32589
1 -18.0027 18.3497 -6.32586
1 -18.0027 18.3497 6.32586
1 18.0033 -18.3497 -6.32586
1 18.0033 -18.3497 6.32586
1 18.0037 18.3497 -6.32589
1 18.0037 18.3497 6.32589
1 6.326 -18.0032 -18.3497
1 6.326 -18.0032 18.3497
1 6.3263 18.0032 -18.3497
1 6.3263 18.0032 18.3497
1 18.3499 -6.32583 -18.0032
1 18.3499 -6.32583 18.0032
1 18.3501 6.32591 -18.0033
1 -18.3496 -6.32591 -18.0033
1 -6.05738 -10.6776 24.5739
1 -6.05718 10.6776 -24.5739
1 -6.05718 10.6776 24.5739
1 -10.6775 -24.5739 -6.05753
1 -10.6775 -24.5739 6.05753
1 -10.6771 24.5739 -6.05759
1 -10.6771 24.5739 6.05759
1 -24.5737 -6.05758 -10.6776
1 -24.5737 -6.05758 10.6776
1 -24.5735 6.05754 -10.6775
1 -24.5735 6.05754 10.6775
1 24.5741 -6.05753 -10.6775
1 24.5741 -6.05753 10.6775
1 24.5743 6.05758 -10.6776
1 24.5743 6.05758 10.6776
1 10.6776 -24.5739 -6.05759
1 10.6776 -24.5739 6.05759
1 10.6781 24.5739 -6.05753
1 10.6781 24.5739 6.05753
1 6.05774 -10.6776 -24.5739
1 6.05774 -10.6776 24.5739
1 6.05794 10.6776 -24.5739
1 -6.05738 -10.6776 -24.5739
1 -4.33818 -12.37 24.6561
1 -4.33796 12.37 -24.6561
1 -4.33796 12.37 24.6561
1 -12.3699 -24.6561 -4.33832
1 -12.3699 -24.6561 4.33832
1 -12.3695 24.6561 -4.33837
1 -12.3695 24.6561 4.33837
1 -24.6559 -4.33838 -12.37
1 -24.6559 -4.33838 12.37
1 -24.6557 4.33832 -12.3699
1 -24.6557 4.33832 12.3699
1 24.6563 -4.33832 -12.3699
1 24.6563 -4.33832 12.3699
1 24.6565 4.33838 -12.37
1 24.6565 4.33838 12.37
1 12.37 -24.6561 -4.33837
1 12.37 -24.6561 4.33837
1 12.3705 24.6561 -4.33832
1 12.3705 24.6561 4.33832
1 4.33851 -12.37 -24.6561
1 4.33851 -12.37 24.6561
1 4.33874 12.37 -24.6561
1 -4.33818 -12.37 -24.6561
1 -4.61062 -10.8951 26.5249
1 -4.61039 10.8951 -26.5249
1 -4.61039 10.8951 26.5249
1 -10.8951 -26.5249 -4.61077
1 -10.8951 -26.5249 4.61077
1 -10.8946 26.5249 -4.6108
1 -10.8946 26.5249 4.6108
1 -26.5247 -4.61079 -10.8951
1 -26.5247 -4.61079 10.8951
1 -26.5245 4.61078 -10.8951
1 -26.5245 4.61078 10.8951
1 26.5251 -4.61078 -10.8951
1 26.5251 -4.61078 10.8951
1 26.5253 4.6108 -10.8951
1 26.5253 4.6108 10.8951
1 10.8951 -26.5249 -4.6108
1 10.8951 -26.5249 4.6108
1 10.8956 26.5249 -4.61077
1 10.8956 26.5249 4.61077
1 4.61095 -10.8951 -26.5249
1 4.61095 -10.8951 26.5249
1 4.61118 10.8951 -26.5249
1 -4.61062 -10.8951 -26.5249
1 -13.2394 -4.19257 24.737
1 -13.2393 4.19256 -24.737
1 -13.2393 4.19256 24.737
1 -4.19248 -24.737 -13.2396
1 -4.19248 -24.737 13.2396
1 -4.19209 24.737 -13.2397
1 -4.19209 24.737 13.2397
1 -24.7369 -13.2396 -4.19257
1 -24.7369 -13.2396 4.19257
1 -24.7366 13.2396 -4.19256
1 -24.7366 13.2396 4.19256
1 24.7371 -13.2396 -4.19256
1 24.7371 -13.2396 4.19256
1 24.7374 13.2396 -4.19257
1 24.7374 13.2396 4.19257
1 4.19264 -24.737 -13.2397
1 4.19264 -24.737 13.2397
1 4.19304 24.737 -13.2396
1 4.19304 24.737 13.2396
1 13.2398 -4.19256 -24.737
1 13.2398 -4.19256 24.737
1 13.24 4.19257 -24.737
1 -13.2394 -4.19257 -24.737
1 -11.386 -5.75625 24.6399
1 -11.3859 5.75625 -24.6399
1 -11.3859 5.75625 24.6399
1 -5.75618 -24.6399 -11.3862
1 -5.75618 -24.6399 11.3862
1 -5.75576 24.6399 -11.3863
1 -5.75576 24.6399 11.3863
1 -24.6398 -11.3862 -5.75625
1 -24.6398 -11.3862 5.75625
1 -24.6395 11.3862 -5.75624
1 -24.6395 11.3862 5.75624
1 24.64 -11.3862 -5.75624
1 24.64 -11.3862 5.75624
1 24.6403 11.3862 -5.75625
1 24.6403 11.3862 5.75625
1 5.75632 -24.6399 -11.3863
1 5.75632 -24.6399 11.3863
1 5.75673 24.6399 -11.3862
1 5.75673 24.6399 11.3862
1 11.3864 -5.75625 -24.6399
1 11.3864 -5.75625 24.6399