12288
Atoms. Timestep: 5036000
1 18.1329 17.9675 45.232
1 37.5737 10.2214 37.4204
1 9.1624 22.6527 50.0184
1 22.9618 9.07031 50.0397
1 23.3497 23.2763 36.8664
1 32.748 5.30014 46.2499
1 46.2666 5.28733 32.3918
1 32.7268 19.1486 32.7035
1 23.0021 16.018 43.2954
1 15.9881 22.691 43.128
1 15.9882 15.7892 49.8979
1 39.567 12.2895 32.6171
1 32.9415 12.3974 39.6651
1 39.6119 5.42647 39.4198
1 4.88089 25.1597 52.6262
1 11.8664 18.4808 52.5321
1 11.5291 25.046 45.5541
1 18.7215 11.6898 52.5331
1 25.5286 4.82083 52.6311
1 25.3923 11.5479 45.6678
1 18.5595 25.2791 38.8695
1 25.6976 18.8009 39.2737
1 25.8649 25.6665 32.3779
1 30.173 2.67424 50.4713
1 36.8986 2.77219 43.5205
1 30.4531 9.85761 43.9817
1 43.6449 2.76992 36.6156
1 50.4724 2.67492 29.7719
1 43.8847 9.78927 30.0882
1 30.5844 16.8966 37.3547
1 37.0165 16.6442 30.1743
1 30.1259 23.6165 30.3228
1 15.8086 19.0633 46.3394
1 19.2873 15.6798 46.3714
1 19.4001 19.2555 43.0989
1 36.4477 9.06776 39.7146
1 39.7988 9.04071 36.2083
1 36.3772 12.4623 36.2527
1 11.3406 21.4238 48.7509
1 8.1067 25.0159 48.9963
1 8.35128 21.7897 52.5499
1 25.3612 8.06567 49.034
1 21.7084 11.2386 48.7805
1 22.0889 8.2252 52.553
1 25.8771 22.4444 36.0889
1 22.1834 25.4933 35.627
1 22.0288 21.9383 38.9493
1 34.0151 6.59078 44.1099
1 30.3769 6.33067 47.2967
1 33.5807 2.75299 47.034
1 47.272 6.31719 30.008
1 44.135 6.56503 33.6835
1 47.0866 2.75074 33.2273
1 33.6058 20.1269 30.2394
1 30.6125 20.3858 34.0017
1 33.937 16.9001 33.8708
1 25.5149 15.1428 42.4328
1 21.8443 18.2961 42.148
1 21.6986 14.6791 45.3683
1 18.3074 21.598 42.0217
1 15.0173 25.1364 42.1856
1 14.7284 21.4192 45.2817
1 18.1799 14.5612 48.6766
1 14.725 17.9597 48.6662
1 15.3267 15.1198 52.5286
1 40.451 13.2121 30.132
1 37.3752 13.4982 33.8502
1 40.8164 10.0925 33.8219
1 34.0946 13.5789 37.4035
1 30.5163 13.3716 40.6615
1 34.1284 10.1578 40.833
1 40.8509 6.66755 37.2408
1 37.4839 6.68001 40.7256
1 40.2413 2.77505 40.0376
1 2.72148 26.4441 53.9507
1 6.3233 23.1584 53.9122
1 5.94493 26.2543 50.2882
1 9.91193 19.9235 53.904
1 13.4295 16.6272 53.9028
1 12.5505 19.1974 49.9188
1 9.35953 26.2736 46.8317
1 12.4828 22.5892 46.4788
1 12.8174 26.3362 43.4295
1 16.8495 13.2317 53.9029
1 20.1878 9.75025 53.9047
1 19.4437 12.3974 49.9296
1 23.4888 6.2192 53.9131
1 26.8462 2.68849 53.9533
1 26.6209 5.91247 50.3108
1 22.894 12.4386 46.5565
1 26.6259 9.3643 46.9087
1 26.7088 12.9099 43.619
1 16.3034 26.4289 40.0539
1 19.6073 22.9115 39.9098
1 19.8387 26.5604 36.7103
1 23.186 19.6722 40.1193
1 26.8546 16.5268 40.4168
1 27.0475 20.1848 37.2727
1 23.424 26.7002 33.3717
1 27.1762 23.7464 34.067
1 26.3589 26.2121 29.4389
1 28.8645 1.34792 52.6062
1 32.1908 1.38774 49.0444
1 29.0975 5.01923 49.4144
1 35.4457 1.39654 45.4682
1 38.7335 1.39812 41.9366
1 36.2228 5.40617 42.8783
1 29.1648 8.53463 46.0805
1 32.9081 8.91392 43.0268
1 29.236 12.0558 42.7668
1 42.1062 1.39778 38.4904
1 45.5652 1.39615 35.1282
1 42.9698 5.39386 35.9332
1 49.0768 1.38783 31.8072
1 52.5988 1.3498 28.4373
1 49.3979 5.02367 28.7146
1 42.9909 8.85902 32.5661
1 46.0113 8.50419 28.7985
1 42.5913 11.9426 28.8534
1 29.3346 15.6132 39.5003
1 32.8984 15.8161 36.2353
1 29.4625 19.1939 36.2704
1 36.1168 15.6945 32.6368
1 39.1679 15.3817 28.905
1 35.7565 18.8567 28.9698
1 29.5277 22.6648 32.9704
1 32.3175 22.3617 29.0306
1 28.3144 25.2337 28.4665
1 19.3232 17.4472 44.7129
1 17.5738 19.127 44.6826
1 17.5313 17.3547 46.3362
1 38.105 10.7691 36.2475
1 36.4407 10.7911 38.0095
1 38.144 9.07385 37.9806
1 8.08718 23.271 50.6642
1 9.77275 21.5382 50.5998
1 9.69742 23.1989 48.8473
1 21.8285 9.65441 50.6123
1 23.5948 8.00085 50.68
1 23.516 9.62762 48.8834
1 22.108 23.7309 37.3085
1 23.9404 22.176 37.4952
1 23.9914 23.9362 35.8144
1 32.1097 4.64733 47.3083
1 33.8605 4.71534 45.6385
1 32.2206 6.48783 45.7347
1 45.6815 4.70474 33.519
1 47.3219 4.63928 31.7435
1 45.7279 6.46474 31.8642
1 32.2544 18.6287 33.9129
1 33.7956 18.5216 32.0636
1 32.1334 20.2734 32.121
1 21.76 16.4761 43.7449
1 23.5897 14.8892 43.8753
1 23.6701 16.708 42.28
1 14.8533 23.2625 43.7137
1 16.4993 21.4891 43.6294
1 16.6288 23.3377 42.0652
1 14.9284 16.4373 50.5374
1 16.6474 14.7368 50.5389
1 16.4451 16.2534 48.661
1 39.102 11.8021 33.8429
1 40.6557 11.6731 31.9922
1 38.9315 13.3754 32.0055
1 32.337 11.7818 40.7651
1 34.1261 11.8817 39.1318
1 32.3433 13.5139 39.076
1 38.9593 4.77997 40.473
1 40.645 4.7773 38.7389
1 39.177 6.68427 38.992
1 5.94107 24.528 51.9678
1 4.2817 26.2898 52.069
1 4.52763 24.7921 53.9264
1 12.8689 17.7844 51.8549
1 11.1284 19.4585 51.8627
1 11.6826 18.2873 53.9031
1 12.6256 24.4432 44.9281
1 11.0851 26.3011 45.1266
1 10.8945 24.4124 46.6277
1 19.7129 10.9672 51.8662
1 18.0153 12.6865 51.8568
1 18.527 11.5001 53.9035
1 26.673 4.245 52.0787
1 24.8797 5.87152 51.9765
1 25.1587 4.4578 53.9273
1 26.6589 11.127 45.2516
1 24.7839 12.6518 45.0625
1 24.7456 10.8804 46.7118
1 19.7201 24.7373 38.3087
1 18.063 26.4891 38.3774
1 17.9181 24.6359 39.935
1 26.9472 18.3538 38.8402
1 25.1196 19.9346 38.6979
1 25.0203 18.101 40.2743
1 27.1372 25.1644 32.0409
1 25.1383 26.6147 31.5956
1 25.2779 25.1603 33.5856
1 30.8208 3.3337 49.4232
1 29.0352 3.22933 51.0574
1 30.5383 1.37362 50.8232
1 37.6004 3.45213 42.5229
1 35.9296 3.44393 44.269
1 37.0807 1.39771 43.6931
1 31.0911 10.5081 42.9217
1 29.1978 10.2915 44.4184
1 31.0589 8.75261 44.5859
1 44.3669 3.43976 35.626
1 42.6609 3.44902 37.3363
1 43.8262 1.39722 36.8002
1 51.0497 3.23538 28.6323
1 49.4298 3.33327 30.4309
1 50.8306 1.37363 30.1286
1 44.3031 10.2256 28.8275
1 42.8142 10.4239 30.7266
1 44.5225 8.70344 30.6966
1 31.1757 17.5028 36.2444
1 29.396 17.4034 37.8829
1 31.1624 15.7592 37.9197
1 37.4604 17.1128 28.935
1 35.9374 17.2765 30.8003
1 37.6522 15.5532 30.7794
1 30.4527 23.9965 28.983
1 29.1082 24.2196 31.0902
1 30.8475 22.5391 30.9475
1 14.6728 19.6373 46.9213
1 16.3785 17.9139 46.8983
1 16.4076 19.6719 45.2312
1 18.1149 16.2198 46.9108
1 19.88 14.5556 46.9573
1 19.8982 16.3037 45.279
1 18.2044 19.7689 43.6114
1 19.9615 18.1002 43.6534
1 20.0506 19.9205 42.0544
1 35.8582 8.46731 40.8326
1 37.5748 8.49224 39.119
1 35.8793 10.2165 39.1552
1 39.2523 8.48022 37.3679
1 40.8947 8.4344 35.5859
1 39.2177 10.1788 35.6399
1 35.8463 11.9135 37.4247
1 37.5019 11.8843 35.6571
1 35.7682 13.5699 35.6552
1 12.4389 20.8202 48.1292
1 10.7891 22.5923 48.2169
1 10.8441 20.9134 49.9546
1 9.18873 24.4041 48.355
1 7.64372 26.2558 48.5493
1 7.52536 24.4313 50.1257
1 9.38269 21.1287 51.8783
1 7.64617 22.811 51.9088
1 8.12229 21.5426 53.9063
1 26.6115 7.62437 48.5932
1 24.7373 9.14621 48.4031
1 24.7714 7.46505 50.1497
1 22.8969 10.7164 48.261
1 21.0918 12.3324 48.1639
1 21.19 10.72 49.9709
1 23.1289 7.54331 51.9161
1 21.413 9.24849 51.8838
1 21.838 7.98718 53.9072
1 27.1418 22.0024 35.6995
1 25.2618 23.5204 35.4365
1 25.2095 21.7536 37.1012
1 23.4041 25.0129 35.1399
1 21.6308 26.6395 35.049
1 21.5483 24.8632 36.7096
1 23.2773 21.4901 38.5156
1 21.4624 23.0729 38.3611
1 21.3709 21.2633 39.9817
1 34.639 7.22562 43.0309
1 32.8516 7.13135 44.6657
1 34.5023 5.36821 44.582
1 31.015 6.98421 46.2388
1 29.1337 6.78034 47.7486
1 30.9468 5.18746 47.8635
1 34.2542 3.42707 46.0122
1 32.558 3.39477 47.7374
1 33.8202 1.39387 47.2553
1 47.7121 6.7731 28.7631
1 46.2097 6.9611 30.6499
1 47.858 5.18041 30.5725
1 44.6592 7.1007 32.5035
1 43.063 7.19562 34.3224
1 44.6315 5.35375 34.1743
1 47.7679 3.39189 32.1899
1 46.0737 3.42299 33.9152
1 47.3182 1.39378 33.4678
1 34.0509 20.6129 29.0067
1 32.5396 20.774 30.8775
1 34.2327 19.0161 30.8309
1 31.0985 20.9093 32.7958
1 29.5227 20.9679 34.6495
1 31.1674 19.2282 34.5469
1 34.4074 17.4116 32.6579
1 32.8371 17.497 34.4874
1 34.5417 15.7881 34.4638
1 26.7744 14.7108 42.0084
1 24.9264 16.2698 41.8527
1 24.8458 14.4509 43.4456
1 23.09 17.8428 41.7054
1 21.2746 19.4401 41.5805
1 21.1836 17.6166 43.1758
1 22.9333 14.2118 44.9069
1 21.1118 15.8098 44.7894
1 21.0747 14.04 46.4442
1 19.4991 21.082 41.504
1 17.7835 22.786 41.5015
1 17.6647 20.9451 43.0792
1 16.1376 24.555 41.5828
1 14.5561 26.3785 41.7385
1 14.3741 24.4911 43.2475
1 15.8705 20.8522 44.7051
1 14.2198 22.6247 44.786
1 14.1234 20.8071 46.3849
1 19.3167 13.9838 48.1023
1 17.5656 15.6616 48.0695
1 17.7123 14.0898 49.9068
1 15.8348 17.3604 48.0621
1 14.1243 19.0788 48.0805
1 14.2674 17.4915 49.9015
1 16.3117 14.3984 51.8524
1 14.5971 16.0984 51.8518
1 15.1513 14.9417 53.9027
1 40.8788 13.6598 28.8785
1 39.373 13.8409 30.7632
1 41.0954 12.1335 30.7471
1 37.8401 13.9899 32.6266
1 36.2669 14.0935 34.4583
1 37.9974 12.4015 34.4556
1 41.2879 10.5833 32.5999
1 39.719 10.6988 34.4418
1 41.4149 8.96997 34.4031
1 34.636 14.1393 36.2428
1 32.93 14.1143 37.9587
1 34.6948 12.4638 37.9945
1 31.1416 14.0097 39.5877
1 29.2813 13.8298 41.1275
1 31.1178 12.2592 41.2546
1 34.719 10.7588 39.7163
1 32.9352 10.6656 41.356
1 34.7042 9.01693 41.4004
1 41.432 7.25595 36.1132
1 39.7744 7.28885 37.8812
1 41.2945 5.4167 37.6797
1 38.0925 7.29679 39.6274
1 36.3831 7.27769 41.3472
1 37.9229 5.42376 41.1542
1 40.9631 3.45376 39.0542
1 39.2766 3.45491 40.7831
1 40.4083 1.39809 40.2021
1 1.59845 27.0707 54.5883
1 3.52729 25.5024 54.6055
1 3.18407 26.8858 52.7041
1 5.34615 23.8818 54.6026
1 7.16052 22.2782 54.6021
1 6.60024 23.4563 52.5749
1 4.86242 26.8607 50.9326
1 6.44993 25.0469 50.7737
1 6.56778 26.8693 49.1982
1 8.96564 20.6748 54.6022
1 10.752 19.0558 54.6024
1 10.1121 20.1374 52.5379
1 12.5138 17.4125 54.6026
1 14.2489 15.742 54.6026
1 13.6056 16.8095 52.5293
1 11.485 19.8315 50.5638
1 13.2067 18.1344 50.545
1 13.021 19.681 48.6941
1 8.28417 26.8894 47.48
1 9.80605 25.0208 47.262
1 10.0064 26.9157 45.771
1 11.3778 23.1865 47.0956
1 13.003 21.3931 46.9845
1 13.1011 23.211 45.3886
1 11.7326 26.9465 44.0679
1 13.2672 25.0851 43.8634
1 13.4627 26.9814 42.3692
1 15.9578 14.0445 54.6025
1 17.6426 12.322 54.6024
1 17.0308 13.4122 52.5297
1 19.3065 10.5775 54.6023
1 20.9533 8.81431 54.6021
1 20.4044 9.95797 52.5399
1 18.366 13.035 50.5498
1 20.09 11.3375 50.5724
1 19.9324 12.887 48.7146
1 22.5902 7.03756 54.6021
1 24.23 5.25551 54.6026
1 23.7905 6.50612 52.579
1 25.8872 3.47258 54.6059
1 27.4916 1.58134 54.5904
1 27.287 3.15778 52.7109
1 25.402 6.39519 50.791
1 27.2425 4.83552 50.9481
1 27.2365 6.54879 49.23
1 21.675 12.925 47.0396
1 23.5022 11.3342 47.1625
1 23.5308 13.0937 45.4982
1 25.3626 9.78881 47.3307
1 27.2492 8.28346 47.5388
1 27.2765 10.0364 45.8704
1 25.4442 13.3345 44.0373
1 27.3176 11.8069 44.2237
1 27.3724 13.5942 42.5978
1 15.1987 27.0212 40.6748
1 16.7802 25.2003 40.5201
1 16.9439 27.0674 38.9859
1 18.4277 23.4375 40.4437
1 20.1506 21.7465 40.4598
1 20.2531 23.5664 38.8551
1 18.7021 27.1215 37.3037
1 20.3597 25.3763 37.2379
1 20.4755 27.1828 35.6268
1 21.9381 20.1221 40.5564
1 23.7632 18.5384 40.6978
1 23.8584 20.3673 39.1111
1 25.601 16.9671 40.8478
1 27.4408 15.3971 40.9911
1 27.5225 17.213 39.4014
1 25.7963 20.6342 37.6971
1 27.6158 19.0376 37.825
1 27.7158 20.8621 36.2553
1 22.2576 27.2399 33.942
1 24.0249 25.6162 34.0252
1 24.0042 27.2375 32.1975
1 25.8973 24.1688 34.3788
1 27.7995 22.6599 34.6679
1 27.7651 24.299 32.9698
1 25.4571 26.9699 30.2482
1 27.9855 25.0902 30.8864
1 26.292 26.3125 28.014
1 28.2252 0.710187 53.7165
1 29.8164 0.694861 51.8134
1 28.4229 2.59234 52.1425
1 31.4568 0.698093 50.0137
1 33.0765 0.698698 48.2118
1 31.8978 2.72681 48.7721
1 28.4703 4.36919 50.48
1 30.3099 4.5335 48.9214
1 28.4945 6.12036 48.8013
1 34.6896 0.698683 46.412
1 36.3108 0.698544 44.6239
1 35.2417 2.7659 45.278
1 37.9495 0.698395 42.8545
1 39.6109 0.698278 41.1079
1 38.563 2.7748 41.7719
1 35.5761 4.75359 43.9319
1 37.2718 4.77307 42.2061
1 35.7663 6.65125 42.4353
1 28.518 7.86885 47.1251
1 30.4194 8.09977 45.6437
1 28.5468 9.62285 45.4586
1 32.2828 8.2783 44.1042
1 34.0958 8.39877 42.4982
1 32.3182 10.0388 42.4432
1 28.5835 11.3866 43.8053
1 30.4843 11.6133 42.3196
1 28.6298 13.1621 42.167
1 41.2971 0.69822 39.3859
1 43.0079 0.698238 37.6881
1 41.9357 2.77347 38.3194
1 44.7414 0.698337 36.0124
1 46.4943 0.698484 34.3549
1 45.3648 2.7633 34.9215
1 42.3305 4.76571 37.0052
1 44.0125 4.74333 35.2682
1 42.5055 6.62943 35.4728
1 48.2614 0.698534 32.7081
1 50.0347 0.697961 31.0587
1 48.7955 2.72546 31.517
1 51.8123 0.69484 29.3939
1 48.9153 4.53153 29.9283
1 42.5017 8.35342 33.7747
1 44.0682 8.23191 31.9319
1 42.3718 9.9627 31.9704
1 45.5887 8.0642 30.056
1 42.1701 11.5027 30.1121
1 28.6864 14.9499 40.5437
1 30.5502 15.1335 39.0077
1 28.7536 16.7485 38.9343
1 32.3371 15.2363 37.3758
1 34.0335 15.2522 35.6504
1 32.3125 16.9447 35.6589
1 28.8303 18.5541 37.3358
1 30.6121 18.6536 35.6932
1 28.9119 20.3583 35.7426
1 35.6491 15.1937 33.8553
1 37.2076 15.0791 32.0169
1 35.4922 16.7922 32.0334
1 38.7319 14.924 30.1516
1 35.3078 18.3776 30.203
1 28.9776 22.1338 34.1309
1 30.522 22.0476 32.2336
1 28.9251 23.7518 32.4153
1 31.8995 21.8855 30.2816
1 27.5817 25.4949 29.6745
1 -18.1318 -17.9675 45.232
1 -18.1316 17.9677 -45.2322
1 -18.1316 17.9677 45.2322
1 -17.9675 -45.2321 -18.1322
1 -17.9675 -45.2321 18.1322
1 -17.9666 45.2321 -18.1323
1 -17.9666 45.2321 18.1323
1 -45.2318 -18.1323 -17.9676
1 -45.2318 -18.1323 17.9676
1 -45.2313 18.1322 -17.9676
1 -45.2313 18.1322 17.9676
1 45.2324 -18.1322 -17.9676
1 45.2324 -18.1322 17.9676
1 45.2329 18.1323 -17.9676
1 45.2329 18.1323 17.9676
1 17.9677 -45.2321 -18.1323
1 17.9677 -45.2321 18.1323
1 17.9686 45.2321 -18.1322
1 17.9686 45.2321 18.1322
1 18.1327 -17.9677 -45.2322
1 18.1327 -17.9677 45.2322
1 18.1329 17.9675 -45.232
1 -18.1318 -17.9675 -45.232
1 -37.5726 -10.2214 37.4204
1 -37.5724 10.2214 -37.4203
1 -37.5724 10.2214 37.4203
1 -10.2211 -37.4203 -37.573
1 -10.2211 -37.4203 37.573
1 -10.2205 37.4203 -37.573
1 -10.2205 37.4203 37.573
1 -37.4203 -37.5732 -10.2215
1 -37.4203 -37.5732 10.2215
1 -37.4193 37.5729 -10.2212
1 -37.4193 37.5729 10.2212
1 37.4204 -37.5729 -10.2212
1 37.4204 -37.5729 10.2212
1 37.4214 37.5732 -10.2215
1 37.4214 37.5732 10.2215
1 10.2216 -37.4203 -37.573
1 10.2216 -37.4203 37.573
1 10.2222 37.4203 -37.573
1 10.2222 37.4203 37.573
1 37.5735 -10.2214 -37.4203
1 37.5735 -10.2214 37.4203
1 37.5737 10.2214 -37.4204
1 -37.5726 -10.2214 -37.4204
1 -9.1613 -22.6527 50.0184
1 -9.1609 22.6527 -50.0185
1 -9.1609 22.6527 50.0185
1 -22.6526 -50.0184 -9.16158
1 -22.6526 -50.0184 9.16158
1 -22.6517 50.0184 -9.16172
1 -22.6517 50.0184 9.16172
1 -50.018 -9.16167 -22.6527
1 -50.018 -9.16167 22.6527
1 -50.0177 9.16163 -22.6527
1 -50.0177 9.16163 22.6527
1 50.0188 -9.16163 -22.6527
1 50.0188 -9.16163 22.6527
1 50.0191 9.16167 -22.6527
1 50.0191 9.16167 22.6527
1 22.6528 -50.0184 -9.16172
1 22.6528 -50.0184 9.16172
1 22.6537 50.0184 -9.16158
1 22.6537 50.0184 9.16158
1 9.162 -22.6527 -50.0185
1 9.162 -22.6527 50.0185
1 9.1624 22.6527 -50.0184
1 -9.1613 -22.6527 -50.0184
1 -22.9607 -9.07031 50.0397
1 -22.9605 9.07035 -50.0397
1 -22.9605 9.07035 50.0397
1 -9.07024 -50.0397 -22.9611
1 -9.07024 -50.0397 22.9611
1 -9.06932 50.0397 -22.9612
1 -9.06932 50.0397 22.9612
1 -50.0394 -22.9612 -9.0703
1 -50.0394 -22.9612 9.0703
1 -50.0389 22.9612 -9.07036
1 -50.0389 22.9612 9.07036
1 50.04 -22.9612 -9.07036
1 50.04 -22.9612 9.07036
1 50.0405 22.9612 -9.0703
1 50.0405 22.9612 9.0703
1 9.07043 -50.0397 -22.9612
1 9.07043 -50.0397 22.9612
1 9.07134 50.0397 -22.9611
1 9.07134 50.0397 22.9611
1 22.9616 -9.07035 -50.0397
1 22.9616 -9.07035 50.0397
1 22.9618 9.07031 -50.0397
1 -22.9607 -9.07031 -50.0397
1 -23.3486 -23.2763 36.8664
1 -23.3485 23.2766 -36.8668
1 -23.3485 23.2766 36.8668
1 -23.2763 -36.8667 -23.3491
1 -23.2763 -36.8667 23.3491
1 -23.2754 36.8665 -23.349
1 -23.2754 36.8665 23.349
1 -36.8664 -23.3492 -23.2766
1 -36.8664 -23.3492 23.2766
1 -36.8656 23.3489 -23.2763
1 -36.8656 23.3489 23.2763
1 36.8667 -23.3489 -23.2763
1 36.8667 -23.3489 23.2763
1 36.8675 23.3492 -23.2766
1 36.8675 23.3492 23.2766
1 23.2765 -36.8665 -23.349
1 23.2765 -36.8665 23.349
1 23.2775 36.8667 -23.3491
1 23.2775 36.8667 23.3491
1 23.3496 -23.2766 -36.8668
1 23.3496 -23.2766 36.8668
1 23.3497 23.2763 -36.8664
1 -23.3486 -23.2763 -36.8664
1 -32.7469 -5.30014 46.2499
1 -32.7467 5.30012 -46.2498
1 -32.7467 5.30012 46.2498
1 -5.29994 -46.2498 -32.7473
1 -5.29994 -46.2498 32.7473
1 -5.29922 46.2499 -32.7474
1 -5.29922 46.2499 32.7474
1 -46.2497 -32.7474 -5.30017
1 -46.2497 -32.7474 5.30017
1 -46.2489 32.7473 -5.3001
1 -46.2489 32.7473 5.3001
1 46.25 -32.7473 -5.3001
1 46.25 -32.7473 5.3001
1 46.2508 32.7474 -5.30017
1 46.2508 32.7474 5.30017
1 5.30033 -46.2499 -32.7474
1 5.30033 -46.2499 32.7474
1 5.30104 46.2498 -32.7473
1 5.30104 46.2498 32.7473
1 32.7478 -5.30012 -46.2498
1 32.7478 -5.30012 46.2498
1 32.748 5.30014 -46.2499
1 -32.7469 -5.30014 -46.2499
1 -46.2655 -5.28733 32.3918
1 -46.2654 5.28743 -32.3918
1 -46.2654 5.28743 32.3918
1 -5.28714 -32.3918 -46.2661
1 -5.28714 -32.3918 46.2661
1 -5.28651 32.3917 -46.266
1 -5.28651 32.3917 46.266
1 -32.3917 -46.2661 -5.2874
1 -32.3917 -46.2661 5.2874
1 -32.3907 46.266 -5.28736
1 -32.3907 46.266 5.28736
1 32.3919 -46.266 -5.28736
1 32.3919 -46.266 5.28736
1 32.3928 46.2661 -5.2874
1 32.3928 46.2661 5.2874
1 5.28761 -32.3917 -46.266
1 5.28761 -32.3917 46.266
1 5.28825 32.3918 -46.2661
1 5.28825 32.3918 46.2661
1 46.2666 -5.28743 -32.3918
1 46.2666 -5.28743 32.3918
1 46.2666 5.28733 -32.3918
1 -46.2655 -5.28733 -32.3918
1 -32.7256 -19.1486 32.7035
1 -32.7252 19.1485 -32.7035
1 -32.7252 19.1485 32.7035
1 -19.1483 -32.7035 -32.7259
1 -19.1483 -32.7035 32.7259
1 -19.1477 32.7036 -32.726
1 -19.1477 32.7036 32.726
1 -32.7035 -32.7262 -19.1488
1 -32.7035 -32.7262 19.1488
1 -32.7024 32.7258 -19.1484
1 -32.7024 32.7258 19.1484
1 32.7035 -32.7258 -19.1484
1 32.7035 -32.7258 19.1484
1 32.7046 32.7262 -19.1488
1 32.7046 32.7262 19.1488
1 19.1488 -32.7036 -32.726
1 19.1488 -32.7036 32.726
1 19.1494 32.7035 -32.7259
1 19.1494 32.7035 32.7259
1 32.7263 -19.1485 -32.7035
1 32.7263 -19.1485 32.7035
1 32.7268 19.1486 -32.7035
1 -32.7256 -19.1486 -32.7035
1 -23.001 -16.018 43.2954
1 -23.0009 16.0182 -43.2956
1 -23.0009 16.0182 43.2956
1 -16.018 -43.2955 -23.0015
1 -16.018 -43.2955 23.0015
1 -16.0171 43.2955 -23.0015
1 -16.0171 43.2955 23.0015
1 -43.2953 -23.0016 -16.0182
1 -43.2953 -23.0016 16.0182
1 -43.2946 23.0014 -16.018
1 -43.2946 23.0014 16.018
1 43.2957 -23.0014 -16.018
1 43.2957 -23.0014 16.018
1 43.2964 23.0016 -16.0182
1 43.2964 23.0016 16.0182
1 16.0182 -43.2955 -23.0015
1 16.0182 -43.2955 23.0015
1 16.0191 43.2955 -23.0015
1 16.0191 43.2955 23.0015
1 23.002 -16.0182 -43.2956
1 23.002 -16.0182 43.2956
1 23.0021 16.018 -43.2954
1 -23.001 -16.018 -43.2954
1 -15.987 -22.691 43.128
1 -15.9868 22.6913 -43.1283
1 -15.9868 22.6913 43.1283
1 -22.6911 -43.1282 -15.9874
1 -22.6911 -43.1282 15.9874
1 -22.6901 43.1281 -15.9874
1 -22.6901 43.1281 15.9874
1 -43.1279 -15.9875 -22.6912
1 -43.1279 -15.9875 22.6912
1 -43.1274 15.9874 -22.6911
1 -43.1274 15.9874 22.6911
1 43.1285 -15.9874 -22.6911
1 43.1285 -15.9874 22.6911
1 43.129 15.9875 -22.6912
1 43.129 15.9875 22.6912
1 22.6912 -43.1281 -15.9874
1 22.6912 -43.1281 15.9874
1 22.6922 43.1282 -15.9874
1 22.6922 43.1282 15.9874
1 15.9879 -22.6913 -43.1283
1 15.9879 -22.6913 43.1283
1 15.9881 22.691 -43.128
1 -15.987 -22.691 -43.128
1 -15.9871 -15.7892 49.8979
1 -15.9868 15.7892 -49.898
1 -15.9868 15.7892 49.898
1 -15.7891 -49.898 -15.9874
1 -15.7891 -49.898 15.9874
1 -15.7882 49.8979 -15.9875
1 -15.7882 49.8979 15.9875
1 -49.8976 -15.9875 -15.7892
1 -49.8976 -15.9875 15.7892
1 -49.8972 15.9875 -15.7892
1 -49.8972 15.9875 15.7892
1 49.8983 -15.9875 -15.7892
1 49.8983 -15.9875 15.7892
1 49.8987 15.9875 -15.7892
1 49.8987 15.9875 15.7892
1 15.7893 -49.8979 -15.9875
1 15.7893 -49.8979 15.9875
1 15.7902 49.898 -15.9874
1 15.7902 49.898 15.9874
1 15.9879 -15.7892 -49.898
1 15.9879 -15.7892 49.898
1 15.9882 15.7892 -49.8979
1 -15.9871 -15.7892 -49.8979
1 -39.5659 -12.2894 32.6171
1 -39.5656 12.2895 -32.6171
1 -39.5656 12.2895 32.6171
1 -12.2892 -32.6171 -39.5663
1 -12.2892 -32.6171 39.5663
1 -12.2886 32.6171 -39.5664
1 -12.2886 32.6171 39.5664
1 -32.617 -39.5665 -12.2896
1 -32.617 -39.5665 12.2896
1 -32.616 39.5662 -12.2893
1 -32.616 39.5662 12.2893
1 32.6171 -39.5662 -12.2893
1 32.6171 -39.5662 12.2893
1 32.6182 39.5665 -12.2896
1 32.6182 39.5665 12.2896
1 12.2897 -32.6171 -39.5664
1 12.2897 -32.6171 39.5664
1 12.2903 32.6171 -39.5663
1 12.2903 32.6171 39.5663
1 39.5667 -12.2895 -32.6171
1 39.5667 -12.2895 32.6171
1 39.567 12.2894 -32.6171
1 -39.5659 -12.2894 -32.6171
1 -32.9404 -12.3974 39.6651
1 -32.9401 12.3974 -39.665
1 -32.9401 12.3974 39.665
1 -12.3971 -39.665 -32.9407
1 -12.3971 -39.665 32.9407
1 -12.3965 39.6651 -32.9408
1 -12.3965 39.6651 32.9408
1 -39.6651 -32.941 -12.3976
1 -39.6651 -32.941 12.3976
1 -39.664 32.9406 -12.3972
1 -39.664 32.9406 12.3972
1 39.6651 -32.9406 -12.3972
1 39.6651 -32.9406 12.3972
1 39.6662 32.941 -12.3976
1 39.6662 32.941 12.3976
1 12.3976 -39.6651 -32.9408
1 12.3976 -39.6651 32.9408
1 12.3982 39.665 -32.9407
1 12.3982 39.665 32.9407
1 32.9412 -12.3974 -39.665
1 32.9412 -12.3974 39.665
1 32.9415 12.3974 -39.6651
1 -32.9404 -12.3974 -39.6651
1 -39.6108 -5.42647 39.4198
1 -39.6107 5.42652 -39.4197
1 -39.6107 5.42652 39.4197
1 -5.42629 -39.4198 -39.6113
1 -5.42629 -39.4198 39.6113
1 -5.42559 39.4197 -39.6113
1 -5.42559 39.4197 39.6113
1 -39.4196 -39.6113 -5.42653
1 -39.4196 -39.6113 5.42653
1 -39.4188 39.6113 -5.42646
1 -39.4188 39.6113 5.42646
1 39.4199 -39.6113 -5.42646
1 39.4199 -39.6113 5.42646
1 39.4207 39.6113 -5.42653
1 39.4207 39.6113 5.42653
1 5.4267 -39.4197 -39.6113
1 5.4267 -39.4197 39.6113
1 5.4274 39.4198 -39.6113
1 5.4274 39.4198 39.6113
1 39.6118 -5.42652 -39.4197
1 39.6118 -5.42652 39.4197
1 39.6119 5.42647 -39.4198
1 -39.6108 -5.42647 -39.4198
1 -4.87978 -25.1597 52.6262
1 -4.87931 25.1597 -52.6262
1 -4.87931 25.1597 52.6262
1 -25.1596 -52.6262 -4.88006
1 -25.1596 -52.6262 4.88006
1 -25.1587 52.6261 -4.88014
1 -25.1587 52.6261 4.88014
1 -52.6257 -4.8801 -25.1597
1 -52.6257 -4.8801 25.1597
1 -52.6255 4.8801 -25.1597
1 -52.6255 4.8801 25.1597
1 52.6266 -4.8801 -25.1597
1 52.6266 -4.8801 25.1597
1 52.6268 4.8801 -25.1597
1 52.6268 4.8801 25.1597
1 25.1598 -52.6261 -4.88014
1 25.1598 -52.6261 4.88014
1 25.1608 52.6262 -4.88006
1 25.1608 52.6262 4.88006
1 4.88042 -25.1597 -52.6262
1 4.88042 -25.1597 52.6262
1 4.88089 25.1597 -52.6262
1 -4.87978 -25.1597 -52.6262
1 -11.8653 -18.4807 52.5321
1 -11.8649 18.4807 -52.5321
1 -11.8649 18.4807 52.5321
1 -18.4806 -52.5321 -11.8656
1 -18.4806 -52.5321 11.8656
1 -18.4797 52.5321 -11.8657
1 -18.4797 52.5321 11.8657
1 -52.5317 -11.8656 -18.4807
1 -52.5317 -11.8656 18.4807
1 -52.5313 11.8656 -18.4807
1 -52.5313 11.8656 18.4807
1 52.5325 -11.8656 -18.4807
1 52.5325 -11.8656 18.4807
1 52.5328 11.8656 -18.4807
1 52.5328 11.8656 18.4807
1 18.4808 -52.5321 -11.8657
1 18.4808 -52.5321 11.8657
1 18.4818 52.5321 -11.8656
1 18.4818 52.5321 11.8656
1 11.866 -18.4807 -52.5321
1 11.866 -18.4807 52.5321
1 11.8664 18.4808 -52.5321
1 -11.8653 -18.4807 -52.5321
1 -11.528 -25.046 45.5541
1 -11.5277 25.0461 -45.5542
1 -11.5277 25.0461 45.5542
1 -25.0459 -45.5542 -11.5284
1 -25.0459 -45.5542 11.5284
1 -25.045 45.5541 -11.5284
1 -25.045 45.5541 11.5284
1 -45.5538 -11.5284 -25.046
1 -45.5538 -11.5284 25.046
1 -45.5534 11.5284 -25.046
1 -45.5534 11.5284 25.046
1 45.5545 -11.5284 -25.046
1 45.5545 -11.5284 25.046
1 45.5549 11.5284 -25.046
1 45.5549 11.5284 25.046
1 25.0461 -45.5541 -11.5284
1 25.0461 -45.5541 11.5284
1 25.047 45.5542 -11.5284
1 25.047 45.5542 11.5284
1 11.5288 -25.0461 -45.5542
1 11.5288 -25.0461 45.5542
1 11.5291 25.046 -45.5541
1 -11.528 -25.046 -45.5541
1 -18.7204 -11.6898 52.5331
1 -18.7201 11.6897 -52.5331
1 -18.7201 11.6897 52.5331
1 -11.6897 -52.5331 -18.7208
1 -11.6897 -52.5331 18.7208
1 -11.6887 52.5331 -18.7208
1 -11.6887 52.5331 18.7208
1 -52.5328 -18.7208 -11.6897
1 -52.5328 -18.7208 11.6897
1 -52.5323 18.7208 -11.6898
1 -52.5323 18.7208 11.6898
1 52.5334 -18.7208 -11.6898
1 52.5334 -18.7208 11.6898
1 52.5339 18.7208 -11.6897
1 52.5339 18.7208 11.6897
1 11.6898 -52.5331 -18.7208
1 11.6898 -52.5331 18.7208
1 11.6908 52.5331 -18.7208
1 11.6908 52.5331 18.7208
1 18.7212 -11.6897 -52.5331
1 18.7212 -11.6897 52.5331
1 18.7215 11.6898 -52.5331
1 -18.7204 -11.6898 -52.5331
1 -25.5275 -4.82083 52.6311
1 -25.5273 4.82087 -52.6311
1 -25.5273 4.82087 52.6311
1 -4.82078 -52.6311 -25.5279
1 -4.82078 -52.6311 25.5279
1 -4.81982 52.6311 -25.528
1 -4.81982 52.6311 25.528
1 -52.6308 -25.5279 -4.82083
1 -52.6308 -25.5279 4.82083
1 -52.6303 25.528 -4.82088
1 -52.6303 25.528 4.82088
1 52.6314 -25.528 -4.82088
1 52.6314 -25.528 4.82088
1 52.6319 25.5279 -4.82083
1 52.6319 25.5279 4.82083
1 4.82093 -52.6311 -25.528
1 4.82093 -52.6311 25.528
1 4.82189 52.6311 -25.5279
1 4.82189 52.6311 25.5279
1 25.5284 -4.82087 -52.6311
1 25.5284 -4.82087 52.6311
1 25.5286 4.82083 -52.6311
1 -25.5275 -4.82083 -52.6311
1 -25.3912 -11.5479 45.6678
1 -25.391 11.548 -45.6678
1 -25.391 11.548 45.6678
1 -11.5478 -45.6678 -25.3915
1 -11.5478 -45.6678 25.3915
1 -11.547 45.6678 -25.3917
1 -11.547 45.6678 25.3917
1 -45.6676 -25.3917 -11.548
1 -45.6676 -25.3917 11.548
1 -45.6669 25.3916 -11.5479
1 -45.6669 25.3916 11.5479
1 45.668 -25.3916 -11.5479
1 45.668 -25.3916 11.5479
1 45.6687 25.3917 -11.548
1 45.6687 25.3917 11.548
1 11.5481 -45.6678 -25.3917
1 11.5481 -45.6678 25.3917
1 11.5489 45.6678 -25.3915
1 11.5489 45.6678 25.3915
1 25.3921 -11.548 -45.6678
1 25.3921 -11.548 45.6678
1 25.3923 11.5479 -45.6678
1 -25.3912 -11.5479 -45.6678
1 -18.5584 -25.2791 38.8695
1 -18.5582 25.2794 -38.8699
1 -18.5582 25.2794 38.8699
1 -25.2792 -38.8698 -18.5589
1 -25.2792 -38.8698 18.5589
1 -25.2782 38.8696 -18.5588
1 -25.2782 38.8696 18.5588
1 -38.8695 -18.5589 -25.2793
1 -38.8695 -18.5589 25.2793
1 -38.8689 18.5588 -25.2792
1 -38.8689 18.5588 25.2792
1 38.87 -18.5588 -25.2792
1 38.87 -18.5588 25.2792
1 38.8706 18.5589 -25.2793
1 38.8706 18.5589 25.2793
1 25.2793 -38.8696 -18.5588
1 25.2793 -38.8696 18.5588
1 25.2803 38.8698 -18.5589
1 25.2803 38.8698 18.5589
1 18.5593 -25.2794 -38.8699
1 18.5593 -25.2794 38.8699
1 18.5595 25.2791 -38.8695
1 -18.5584 -25.2791 -38.8695
1 -25.6965 -18.8009 39.2737
1 -25.6964 18.8011 -39.274
1 -25.6964 18.8011 39.274
1 -18.8008 -39.2739 -25.697
1 -18.8008 -39.2739 25.697
1 -18.8001 39.2738 -25.697
1 -18.8001 39.2738 25.697
1 -39.2738 -25.6972 -18.8012
1 -39.2738 -25.6972 18.8012
1 -39.2728 25.6968 -18.8008
1 -39.2728 25.6968 18.8008
1 39.2739 -25.6968 -18.8008
1 39.2739 -25.6968 18.8008
1 39.2749 25.6972 -18.8012
1 39.2749 25.6972 18.8012
1 18.8012 -39.2738 -25.697
1 18.8012 -39.2738 25.697
1 18.802 39.2739 -25.697
1 18.802 39.2739 25.697
1 25.6975 -18.8011 -39.274
1 25.6975 -18.8011 39.274
1 25.6976 18.8009 -39.2737
1 -25.6965 -18.8009 -39.2737
1 -25.8638 -25.6665 32.3779
1 -25.8635 25.6666 -32.3781
1 -25.8635 25.6666 32.3781
1 -25.6664 -32.378 -25.8643
1 -25.6664 -32.378 25.8643
1 -25.6656 32.3779 -25.8642
1 -25.6656 32.3779 25.8642
1 -32.3778 -25.8644 -25.6667
1 -32.3778 -25.8644 25.6667
1 -32.377 25.8641 -25.6664
1 -32.377 25.8641 25.6664
1 32.3781 -25.8641 -25.6664
1 32.3781 -25.8641 25.6664
1 32.3789 25.8644 -25.6667
1 32.3789 25.8644 25.6667
1 25.6667 -32.3779 -25.8642
1 25.6667 -32.3779 25.8642
1 25.6675 32.378 -25.8643
1 25.6675 32.378 25.8643
1 25.8646 -25.6666 -32.3781
1 25.8646 -25.6666 32.3781
1 25.8649 25.6665 -32.3779
1 -25.8638 -25.6665 -32.3779
1 -30.1719 -2.67424 50.4713
1 -30.1718 2.67428 -50.4712
1 -30.1718 2.67428 50.4712
1 -2.67413 -50.4712 -30.1724
1 -2.67413 -50.4712 30.1724
1 -2.67328 50.4713 -30.1725
1 -2.67328 50.4713 30.1725
1 -50.471 -30.1724 -2.67426
1 -50.471 -30.1724 2.67426
1 -50.4703 30.1724 -2.67426
1 -50.4703 30.1724 2.67426
1 50.4714 -30.1724 -2.67426
1 50.4714 -30.1724 2.67426
1 50.4721 30.1724 -2.67426
1 50.4721 30.1724 2.67426
1 2.67439 -50.4713 -30.1725
1 2.67439 -50.4713 30.1725
1 2.67524 50.4712 -30.1724
1 2.67524 50.4712 30.1724
1 30.1729 -2.67428 -50.4712
1 30.1729 -2.67428 50.4712
1 30.173 2.67424 -50.4713
1 -30.1719 -2.67424 -50.4713
1 -36.8975 -2.77219 43.5205
1 -36.8973 2.77224 -43.5204
1 -36.8973 2.77224 43.5204
1 -2.77202 -43.5205 -36.8979
1 -2.77202 -43.5205 36.8979
1 -2.77131 43.5205 -36.898
1 -2.77131 43.5205 36.898
1 -43.5203 -36.8979 -2.77222
1 -43.5203 -36.8979 2.77222
1 -43.5196 36.898 -2.77221
1 -43.5196 36.898 2.77221
1 43.5207 -36.898 -2.77221
1 43.5207 -36.898 2.77221
1 43.5214 36.8979 -2.77222
1 43.5214 36.8979 2.77222
1 2.77241 -43.5205 -36.898
1 2.77241 -43.5205 36.898
1 2.77313 43.5205 -36.8979
1 2.77313 43.5205 36.8979
1 36.8984 -2.77224 -43.5204
1 36.8984 -2.77224 43.5204
1 36.8986 2.77219 -43.5205
1 -36.8975 -2.77219 -43.5205
1 -30.452 -9.85761 43.9817
1 -30.4517 9.8576 -43.9816
1 -30.4517 9.8576 43.9816
1 -9.85738 -43.9816 -30.4523
1 -9.85738 -43.9816 30.4523
1 -9.85672 43.9817 -30.4525
1 -9.85672 43.9817 30.4525
1 -43.9815 -30.4525 -9.85772
1 -43.9815 -30.4525 9.85772
1 -43.9806 30.4523 -9.85749
1 -43.9806 30.4523 9.85749
1 43.9818 -30.4523 -9.85749
1 43.9818 -30.4523 9.85749
1 43.9826 30.4525 -9.85772
1 43.9826 30.4525 9.85772
1 9.85783 -43.9817 -30.4525
1 9.85783 -43.9817 30.4525
1 9.85849 43.9816 -30.4523
1 9.85849 43.9816 30.4523
1 30.4528 -9.8576 -43.9816
1 30.4528 -9.8576 43.9816
1 30.4531 9.85761 -43.9817
1 -30.452 -9.85761 -43.9817
1 -43.6438 -2.76992 36.6156
1 -43.6438 2.77002 -36.6156
1 -43.6438 2.77002 36.6156
1 -2.76975 -36.6157 -43.6444
1 -2.76975 -36.6157 43.6444
1 -2.76908 36.6156 -43.6443
1 -2.76908 36.6156 43.6443
1 -36.6155 -43.6443 -2.76997
1 -36.6155 -43.6443 2.76997
1 -36.6147 43.6444 -2.76996
1 -36.6147 43.6444 2.76996
1 36.6158 -43.6444 -2.76996
1 36.6158 -43.6444 2.76996
1 36.6166 43.6443 -2.76997
1 36.6166 43.6443 2.76997
1 2.77019 -36.6156 -43.6443
1 2.77019 -36.6156 43.6443
1 2.77085 36.6157 -43.6444
1 2.77085 36.6157 43.6444
1 43.6449 -2.77002 -36.6156
1 43.6449 -2.77002 36.6156
1 43.6449 2.76992 -36.6156
1 -43.6438 -2.76992 -36.6156
1 -50.4713 -2.67492 29.7719
1 -50.4713 2.67499 -29.7719
1 -50.4713 2.67499 29.7719
1 -2.67468 -29.7719 -50.4719
1 -2.67468 -29.7719 50.4719
1 -2.67412 29.7718 -50.4718
1 -2.67412 29.7718 50.4718
1 -29.7718 -50.4719 -2.67495
1 -29.7718 -50.4719 2.67495
1 -29.7708 50.4718 -2.67496
1 -29.7708 50.4718 2.67496