read_data       ${fname}
read_data       P8-15_D3_5.xyz
  orthogonal box = (-58.1592 -58.1592 -58.1592) to (58.1592 58.1592 58.1592)
  2 by 2 by 4 MPI processor grid
  reading atoms ...
  12288 atoms
change_box 	all triclinic
  triclinic box = (-58.1592 -58.1592 -58.1592) to (58.1592 58.1592 58.1592) with tilt (0 0 0)

include potential.mod
# NOTE: This script can be modified for different pair styles
# See in.elastic for more info.

# Choose potential
pair_style     rebo
pair_coeff     * * CH.airebo  C
Reading potential file CH.airebo with DATE: 2011-10-25

#pair_style     lcbop
#pair_coeff     C.lcbop
#pair_style     tersoff
#pair_coeff     BNC.tersoff


# Setup neighbor style
neighbor 1.0 nsq
neigh_modify once no every 1 delay 0 check yes

# Setup minimization style
min_style	     cg
min_modify	     dmax ${dmax} line quadratic
min_modify	     dmax 0.01 line quadratic

# Setup output
thermo		500
thermo_style custom step temp pe press pxx pyy pzz pxy pxz pyz lx ly lz vol
thermo_modify norm no


# Output
dump            1 all xtc 100 traj.xtc
dump            2 all xyz 2000 relaxed.xyz
#dump            4 all atom 10 dump.atom

# Compute initial state
fix 3 all box/relax  aniso 0.0
minimize ${etol} ${ftol} ${maxiter} ${maxeval}
minimize 0 ${ftol} ${maxiter} ${maxeval}
minimize 0 1e-10 ${maxiter} ${maxeval}
minimize 0 1e-10 10000000 ${maxeval}
minimize 0 1e-10 10000000 10000000
Neighbor list info ...
  1 neighbor list requests
  update every 1 steps, delay 0 steps, check yes
  master list distance cutoff = 7
Memory usage per processor = 5.10809 Mbytes
Step Temp PotEng Press Pxx Pyy Pzz Pxy Pxz Pyz Lx Ly Lz Volume 
       0            0   -83248.124    19535.211    19535.212    19535.205    19535.216 -0.0011043175 0.00084259205 0.00011116673    116.31838    116.31838    116.31838    1573783.7 
     500            0   -87927.947    -56.15937   -56.159352   -56.159381   -56.159379 -0.0017199191 0.0015075617 5.9205494e-05    118.57463    118.57462    118.57463    1667152.3 
    1000            0   -89697.567    21.892407    21.892407    21.892408    21.892407 -0.0043798399 0.0042498764  -2.0108e-05    117.26033    117.26033    117.26033    1612327.7 
    1500            0   -89909.652     15.51631     15.51631     15.51631     15.51631  -0.00511923 0.0050349335 -2.8236619e-05    117.09748    117.09748    117.09748    1605619.6 
    2000            0   -90106.007   -13.011338   -13.011331    -13.01134   -13.011342 -0.0051171795 0.0050664919 -3.9253209e-05    116.92322    116.92322    116.92322    1598462.1 
    2500            0   -90235.993   -46.935312   -48.321203   -46.735002   -45.749732 -0.0048926231 0.0048682187 -3.8679119e-05    116.83141    116.83092    116.83062    1594682.1 
    3000            0   -90293.857   -46.425241   -47.229531   -46.308988   -45.737203 -0.0047506604 0.0047352132 -3.8257439e-05    116.79463    116.79434    116.79417    1593183.6 
    3500            0   -90347.702   -45.649233   -46.313816   -45.553172   -45.080711 -0.004613167 0.0046045044 -3.8160627e-05    116.76558    116.76534     116.7652    1591996.9 
    4000            0   -90398.907   -45.741029   -46.251804   -45.667216   -45.304067 -0.0044898823 0.0044864561 -3.831945e-05    116.74509    116.74492    116.74481    1591161.3 
    4500            0   -90448.538   -45.062302   -45.520818   -44.996041   -44.670048 -0.0043852953 0.0043857318 -3.8502556e-05    116.72687    116.72671    116.72661    1590416.9 
    5000            0   -90497.246   -44.471299   -44.876775   -44.412702   -44.124421 -0.0042956636 0.0042987729 -3.8555581e-05    116.71147    116.71133    116.71125    1589788.3 
    5500            0    -90545.45   -43.942982   -44.310384   -43.889886   -43.628676 -0.0042130656 0.0042149685 -3.5505943e-05    116.69823    116.69811    116.69803    1589247.8 
    6000            0   -90593.448   -43.458753   -43.800991   -43.409293   -43.165976 -0.0041356488  0.004136266 -3.3022396e-05    116.68658    116.68646    116.68639    1588771.9 
    6500            0   -90641.474   -43.003417   -43.331893   -42.955945   -42.722414  -0.00406523 0.0040628398 -2.9341314e-05    116.67605    116.67593    116.67586      1588342 
    7000            0   -90689.733   -42.566224   -42.890819   -42.519311   -42.288541 -0.003998967 0.0039922923 -2.4550142e-05    116.66629    116.66617    116.66611    1587943.4 
    7500            0   -90738.421   -42.139336   -42.468999   -42.091689    -41.85732 -0.0039265468   0.00392008 -2.4038796e-05    116.65703    116.65692    116.65685    1587565.5 
    8000            0   -90787.749   -41.718315   -42.061539   -41.668707   -41.424699 -0.0038552867 0.0038496431 -2.4088251e-05    116.64809    116.64797     116.6479    1587200.3 
    8500            0   -90837.952   -41.298547   -41.665025   -41.245576   -40.985039 -0.0037828057 0.0037778681 -2.3922077e-05    116.63933     116.6392    116.63913    1586842.4 
    9000            0   -90889.312   -40.874048    -41.27565      -40.816   -40.530496 -0.0037074185 0.0037030852 -2.3439124e-05    116.63065    116.63052    116.63043    1586487.9 
    9500            0    -90942.17   -40.440695   -40.893595   -40.375229   -40.053261 -0.0036237039   0.00361962 -2.2452081e-05    116.62201    116.62185    116.62176    1586134.5 
   10000            0   -90996.945   -39.990753   -40.521282   -39.914062   -39.536914 -0.0035343246 0.0035300442 -2.0795573e-05    116.61336    116.61318    116.61307    1585780.9 
   10500            0   -91054.132   -39.508685    -40.16374   -39.413991   -38.948325 -0.0034370032 0.0034327462 -1.8981095e-05    116.60472     116.6045    116.60436    1585426.8 
   11000            0    -91114.24   -38.964398   -39.833352   -38.838777   -38.221065 -0.0033316314 0.0033274166 -1.6835315e-05    116.59611    116.59582    116.59563    1585073.2 
   11500            0    -91177.54   -38.305299   -39.552391   -38.125004   -37.238501 -0.0032180173  0.003213651 -1.4159281e-05    116.58765    116.58723    116.58696    1584723.6 
   12000            0   -91243.673   -37.502024   -39.339057   -37.236426   -35.930588 -0.0030936733 0.0030898974 -1.18529e-05    116.57954    116.57892    116.57853    1584385.8 
   12500            0   -91311.997   -36.634437   -39.186749   -36.265407   -34.451154 -0.0029649672 0.0029626417 -1.0296239e-05    116.57199    116.57112    116.57058    1584069.1 
   13000            0   -91382.819   -35.816198   -39.070795   -35.345613   -33.032185 -0.0028329092 0.0028329917 -9.2812798e-06    116.56504    116.56394    116.56325    1583777.6 
   13500            0   -91458.366   -35.120202   -38.970892   -34.563432   -31.826281 -0.0026963512 0.0026980826 -7.908576e-06    116.55861     116.5573    116.55649    1583508.1 
   14000            0   -91545.652   -34.665739   -38.879335   -34.056555   -31.061326 -0.0025463104 0.0025493573 -7.1537217e-06    116.55237    116.55093    116.55004    1583249.2 
   14500            0   -91773.297   -29.079088   -19.814948   -30.384747   -37.037569 -0.0018044118 0.0018078345 -2.2935054e-05    116.53455     116.5377    116.53968    1582686.7 
   15000            0   -91835.546   -7.7600014   -5.8667505   -8.0234496   -9.3898041 -0.0019996794 0.0020045785 -1.1834491e-05    116.52904    116.52968    116.53008    1582372.7 
   15500            0   -91881.171    12.869306    6.0549661     14.04666    18.506292 -0.0019251715 0.0019322657 -9.8490995e-06     116.5245    116.52217    116.52087      1582084 
   16000            0   -91931.288    40.220002    31.283022    41.678771    47.698214 -0.0018216016 0.0018366847 -1.2484371e-05    116.51521    116.51221    116.51048    1581681.6 
   16500            0   -91976.634    4.8638538    18.036155    1.1698913   -4.6144845 -0.001780615 0.0017887155 -1.0493712e-05    116.50589    116.51076    116.51243    1581561.8 
   17000            0   -92008.072    14.461109    20.493127    12.802642    10.087559 -0.0017392084 0.0017464548 -9.925113e-06    116.49997    116.50216    116.50294      1581236 
   17500            0   -92042.197    1.8030394   0.25876167     3.137055    2.0133015 -0.001694729 0.0017012322 -9.4177526e-06    116.49759    116.49678     116.4971    1581051.3 
   18000            0   -92070.766    20.725767    13.460039    26.779629    21.937634 -0.0016588152 0.0016646886 -8.9058598e-06    116.48936    116.48557    116.48695    1580649.9 
   18500            0   -92102.359    7.2586605    26.827483   -8.5190636    3.4675627 -0.0016187133 0.0016239154 -8.2968992e-06     116.4781    116.48816    116.48475    1580502.2 
   19000            0   -92135.418    21.227014   -0.2422393    40.183908    23.739374 -0.0015780948 0.0015825946 -7.6593298e-06    116.48283     116.4713    116.47599    1580218.9 
   19500            0   -92168.338   -28.296982   -11.749702   -43.171322   -29.969921 -0.0015371869 0.0015410177 -7.0142922e-06     116.4755    116.48448    116.48071    1580362.4 
   20000            0    -92205.55    10.198725    8.7345819    11.475643    10.385951 -0.0014930612 0.0014962969 -6.4208081e-06    116.47094    116.47016    116.47047    1579967.3 
   20500            0   -92237.814    -31.00662   -44.606311   -19.447425   -28.966124 -0.0014543415 0.0014570695 -5.8380813e-06    116.47791     116.4707    116.47343    1580109.2 
   21000            0   -92266.318   -7.4513491   -29.539942    10.511619    -3.325724 -0.0014216529 0.0014239393 -5.3713701e-06    116.47466    116.46317    116.46714    1579877.7 
   21500            0   -92298.156    23.855134    21.647414    27.875027    22.042959 -0.0013856956  0.001387493 -4.7866168e-06    116.46223    116.46044    116.46212    1579604.1 
   22000            0   -92322.643   -25.750574   -30.558913   -17.161431   -29.531378 -0.0013574005 0.0013587327 -4.2960593e-06    116.46928    116.46542    116.46898    1579860.2 
   22500            0   -92346.903   -8.5307962   -4.8534788    -14.89096   -5.8479503 -0.0013306356 0.0013315438 -3.7966281e-06    116.46319    116.46609    116.46348    1579712.1 
   23000            0   -92366.518    -9.197244    11.100608   -44.795203    6.1028632 -0.0013089671 0.0013095982 -3.3978798e-06    116.45782    116.47396    116.45926    1579688.7 
   23500            0    -92391.63    56.504369    46.918187    77.644569    44.950352 -0.0013389744 0.0013118736 1.9477071e-05    116.45596    116.44718    116.45652    1579263.2 
   24000            0    -92410.37     1.837339  -0.97126195    9.8022304   -3.3189515 -0.0012846769  0.001285894 -4.7330112e-06    116.46268    116.45963    116.46334    1579615.7 
   24500            0   -92428.267    9.5155032    17.459539   -14.664999    25.751969 -0.0012641146 0.0012649139 -4.1471838e-06    116.45882    116.46793    116.45647    1579582.6 
   25000            0   -92445.645   -83.567072   -88.547731   -69.242172   -92.911312 -0.001244271 0.0012447075 -3.7581148e-06    116.47652    116.47104    116.47776    1580153.8 
   25500            0    -92465.93   -16.278774   -5.8462534   -39.584721   -3.4053473 -0.0012237865 0.0012240111 -3.4488277e-06    116.46283    116.47243    116.46214      1579775 
   26000            0   -92483.189    -24.68797   -33.366698   -5.1154869   -35.581725 -0.0012058797 0.0012058767 -3.1894271e-06     116.4701    116.46205    116.47073    1579849.3 
   26500            0   -92511.037   -14.836673   -33.678666    7.3586812   -18.190033 -0.0011776094  0.001177336 -2.8076658e-06    116.47274    116.46103    116.46832    1579838.5 
   27000            0     -92526.7    14.147776    10.407661    18.747597    13.288069 -0.0011621479 0.0011617714 -2.6887558e-06    116.46497    116.46259    116.46415    1579697.7 
   27500            0    -92542.84    89.150729    111.77676     58.71134    96.964084 -0.0011468069 0.0011463471 -2.5333427e-06    116.44738    116.46254    116.45161    1579288.4 
   28000            0   -92557.532   -71.662961   -54.513862   -94.136513   -66.338508 -0.0011305477 0.0011298548 -2.2950657e-06    116.47333    116.48469    116.47672    1580281.5 
   28500            0   -92576.293     53.52788    35.394174    78.237546    46.951921 -0.0011132096 0.0011125098 -2.1853898e-06    116.46638     116.4541    116.46307    1579587.1 
   29000            0   -92593.767 -0.078068324   -25.162316    39.837504   -14.909393 -0.0010954655 0.0010946003 -1.9413474e-06    116.47748    116.45881    116.47454    1579957.2 
   29500            0   -92613.133     29.74902     28.93174    30.845328    29.469991 -0.0010767959 0.0010757933 -1.7943934e-06    116.46768    116.46713    116.46752    1579841.8 
   30000            0   -92628.341   -4.2889227   -30.675888    33.695451   -15.886331 -0.0010615353 0.0010604341 -1.5824322e-06    116.48129    116.46275    116.47703    1580096.1 
   30500            0   -92643.845    18.572058    20.814729    15.152359    19.749085 -0.001046661 0.0010454754 -1.494523e-06    116.47109    116.47272    116.47139    1580016.5 
   31000            0   -92659.328    35.214572    52.907145    7.9109387    44.825633 -0.0010317606 0.0010304451 -1.4184132e-06    116.46565    116.47865    116.46799      1579977 
   31500            0   -92688.287   -7.4886359   -1.8909576   -13.649708   -6.9252421 -0.0010030032 0.0010015494 -1.1459413e-06    116.47831    116.48171    116.47977      1580350 
   32000            0   -92704.646   -2.6626974    11.007144   -12.013394   -6.9818417 -0.00098708389 0.0009855783 -1.034196e-06    116.47703     116.4837    116.48224    1580393.2 
   32500            0   -92815.067    7.4731011   -2.3168737    14.667861    10.068316 -0.00096694903 0.00090258862 6.033637e-05    116.49251    116.48753    116.48888    1580745.3 
   33000            0    -92881.96    -57.83957   -55.312907   -59.529711   -58.676093 -0.0012670634 0.0011632393 9.1232629e-05    116.50681    116.50806    116.50782    1581475.1 
   33500            0   -92926.743   -17.515368   -20.687776   -12.831122   -19.027205 -0.0012395865 0.0013397865 -8.9455985e-05    116.50605     116.5038    116.50558    1581376.5 
   34000            0   -92977.873    79.028949    87.658328    75.014666    74.413855 -0.00022268071 0.0015033452 -0.00062319443    116.49362    116.49715    116.49738    1581006.3 
   34500            0   -93031.554    16.897669    26.874104    1.8986957    21.920208 -0.0014486962 -0.0093580054 -0.0090447197    116.48914    116.49989    116.49053    1580889.8 
   35000            0   -93094.959   -37.977401   -46.989403   -25.110576   -41.832225  0.014363968  0.045885122 -0.016833339    116.40204    116.39592    116.40059    1577079.3 
   35500            0   -93161.754    12.280906    11.033348    14.001223    11.808146  0.013696376  0.075078044 -0.032147014    116.26232    116.26159    116.26182    1571492.7 
   36000            0    -93200.01  -0.28375368    5.9501873   -4.8801366   -1.9213118    2.6531213  -0.44299737    5.0921229    116.18982    116.19731    116.20648    1568897.1 
   36500            0   -93244.601    2.8945254    7.5541716   -4.1104865    5.2398912   -3.0695557  -0.85656614    10.182381    116.14589    116.15094    116.15693    1567009.8 
   37000            0   -93294.318   -35.937056   -103.27417    19.968821   -24.505818  0.002612986  0.077891577  -0.13140305     116.1248    116.08961    116.10227    1565161.1 
   37500            0   -93343.361    7.6598729    15.529799    3.3655615    4.0842583  0.010450436    0.1802058 -0.021922637    116.05863    116.06326    116.06122    1563361.2 
   38000            0   -93388.496    3.4605815     1.065625     7.111045    2.2050743 1.5008659e-05 -0.040961527  0.020888481     116.0215    116.01884     116.0207    1561717.5 
   38500            0    -93459.08    30.566577    9.7598785     43.10443    38.835423  0.012147228 -0.0010614611 -0.0059316523    115.93021    115.92071      115.915    1557748.4 
   39000            0   -93506.223   -2.0753798    -49.49089    18.826195    24.438556  0.059420873  0.019117251 -0.0098370764    115.85804    115.83561    115.83427    1554552.3 
   39500            0   -93560.606   -14.847917   -8.2661468   -39.436835    3.1592297  0.040978856 0.0053581327 -0.032878818    115.73251    115.73646    115.73255    1550176.3 
   40000            0   -93592.952   -14.412662    -26.81019   -7.4074017   -9.0203944 0.0011139408  0.002546928 -0.014059195    115.68466    115.67902    115.67793    1548035.5 
   40500            0   -93644.471   -8.8576346   -8.9269661   -8.7782039   -8.8677339 0.0054458197 -0.0045399965  0.010802671    115.60675    115.60925    115.60376    1545068.4 
   41000            0   -93685.584   -22.661286   -58.706077    2.9157413   -12.193523  0.031371195  -0.20003652   -1.0922436    115.56542    115.54309    115.54788    1542886.1 
   41500            0   -93718.087    2.5505939   -24.954347    22.088415    10.517714  0.011005812 0.0017782581 -0.017118931    115.51148    115.49634    115.49961      1540898 
   42000            0   -93746.872    7.4551843    22.160366   -10.339624    10.544811 -0.0052177237  0.015718342 -0.0068584478    115.45488      115.466    115.45868    1539192.7 
   42500            0   -93768.569    10.130136   -19.557357    21.509646    28.438118   -0.0124018 -0.034327301 -0.003525073    115.43685    115.42247    115.42093    1537869.1 
   43000            0   -93795.813     1.457495    24.800903   -9.9919446   -10.436474 -0.0095549306 -0.010083131 -0.005220286    115.37868    115.39018    115.39063    1536260.8 
   43500            0   -93825.981    28.942571    23.427441    45.084237    18.316036 -0.0086613209 0.0038729887 -0.0060406907    115.33533    115.32797    115.33706    1534143.1 
   44000            0   -93844.234   -3.8298982   -20.979596    15.406191   -5.9162888 -0.0090973067 0.0044197026 -0.0062953904    115.31541    115.30314    115.31038    1533193.2 
   44500            0   -93877.488   -0.2314215    13.231384    18.235541   -32.161189 -0.010163217 0.0056563942 -0.0076179542     115.2488     115.2465     115.2637    1530934.9 
   45000            0   -93910.817  -0.87134609    1.9813164   -6.2215528    1.6261982 -0.012879766 0.0078457838 -0.010798013    115.19519    115.19779     115.1951    1528665.6 
   45500            0   -93940.162    24.429526    23.976292  -0.29511589    49.607402 -0.018074932  0.011450993 -0.015672558     115.1384    115.14674    115.12952    1526365.5 
   46000            0   -93966.625   -5.1823877   -2.1536472    -9.764056   -3.6294599 -0.024887329  0.015752519 -0.020009896    115.09292    115.09505    115.09294      1524593 
   46500            0   -93989.799    11.066657   -30.944653     31.97175    32.172875 -0.033480268  0.020797711 -0.022628388    115.06019    115.03805    115.03807    1522678.5 
   47000            0    -94013.36   -3.7865967   -7.1046664   0.99144134   -5.2465651 -0.042059183  0.025143857  -0.02227699    115.00219    114.99875    115.00102      1520901 
   47500            0   -94037.529    19.610636    19.273789    37.247963    2.3101568 -0.047401795  0.026824236 -0.017800004    114.94645     114.9393    114.95165    1518725.6 
   48000            0   -94058.654   -10.251955   -6.9108503   -7.2804412   -16.564573 -0.046796023  0.025121295 -0.011972439    114.90569    114.90583    114.90906    1517182.7 
   48500            0   -94092.316    14.973699    29.769445   -2.1496568    17.301307  -0.03836692   0.01840365 -0.0018502105    114.82885    114.83911    114.83242    1514276.9 
   49000            0   -94116.018   -18.490343   -19.393348   -16.124985   -19.952697 -0.041090901  0.018772513  0.002121286     114.7924    114.79193    114.79254      1512649 
   49500            0   -94146.115    12.593307    33.691839     29.06908   -24.980998 -0.043156812  0.018901081 0.0049884742    114.72378    114.72501    114.74413    1510226.2 
   50000            0   -94178.111   -2.5666702    -20.63697    19.689045    -6.752085 -0.043331429  0.018561926  0.005342211    114.68048    114.66579    114.67517    1507970.2 
   50500            0   -94198.997   -21.226985  -0.85005059   -28.329449   -34.501455 -0.042502906  0.018279919 0.0035617897    114.63172    114.64077    114.64301    1506577.5 
   51000            0   -94226.981    11.739621    31.478927   0.50759063    3.2323457  -0.03888528  0.016921068 -0.00070050722    114.57189     114.5826    114.58165    1504221.6 
   51500            0   -94250.713   -2.1916748   -3.6714557    2.6190834    -5.522652 -0.033107261  0.014647169 -0.0055332088    114.53513    114.53167    114.53489    1502457.3 
   52000            0   -94273.385   -45.591971   -52.469146   -56.673282   -27.633485   -0.0267177  0.012130009 -0.0095968232    114.49707    114.49834    114.48813    1500907.9 
   52500            0   -94298.914    24.917674    20.062363    25.058186    29.632473 -0.018954693 0.0087162617 -0.012518601    114.42867    114.42617    114.42472    1498235.4 
   53000            0   -94321.784    11.757817    -17.18608     29.44708     23.01245 -0.011556495 0.0056156757 -0.014581048    114.38766    114.37051    114.37337    1496298.2 
   53500            0   -94344.497     1.635357    16.883503   -12.528131   0.55069896 -0.019074724 0.0019663909 -0.0073256309    114.32023    114.33159    114.32429    1494265.7 
   54000            0   -94365.968   -14.641858   -42.088753   -7.7485338    5.9117129   0.13098011  -0.41638726 -0.062915918    114.28731    114.27497    114.27009    1492387.7 
   54500            0   -94389.341    9.3627284     16.87459   -1.0100992    12.223694 -0.0084031876 0.0016230245 -0.010942511    114.21225    114.21832    114.21362    1489931.7 
   55000            0   -94409.673     67.28343    31.383971    97.979735    72.486585 -0.014324603 -0.0013335536 -0.0059895133    114.16371    114.13996    114.14841    1487427.1 
   55500            0   -94432.987     -8.40348   -28.956027   -4.1544587    7.9000455  0.045565434 2.1985325e-05 -0.051372994    114.11065    114.10158    114.09714    1485568.2 
   56000            0   -94453.133   -15.504951   0.43114245   -45.363218    -1.582777  0.052041901 -0.041484453  0.008039279    114.04256    114.06007    114.04349    1483443.8 
   56500            0   -94468.104    32.355302     16.71368    24.659195    55.693029  -0.38959275   0.32437567 -0.011323758    114.00535    114.00237     113.9914    1481532.5 
   57000            0   -94488.187   -21.766414     12.51839   -19.521637   -58.295994   -0.7444826  -0.15946555   -1.7209153     113.9408    113.95233      113.966      1479714 
   57500            0    -94507.49   -23.692716   -33.841841   -29.506493   -7.7298156  0.059381364  -0.29126117   0.42467685    113.90247    113.90069    113.89482    1477622.4 
   58000            0   -94521.681   -7.3521701   -17.528168    7.1971584     -11.7255 -0.0034517054 -4.9115275e-05 8.5312668e-05     113.8609    113.85198    113.85868    1475982.9 
   58500            0   -94540.966    1.2272536    20.378599   -3.1019826   -13.594856  0.022439697  -0.22684551  -0.67425076    113.79649    113.80268    113.80745    1473845.8 
   59000            0   -94556.302    42.667516    44.792588    41.607529    41.602432    2.6769792   0.49182575   -0.8709742    113.75421    113.75401    113.75454    1471983.4 
   59500            0   -94573.349    -10.16348   -17.605354   -15.332946    2.4478607   0.33799611 -0.0031061081  -0.58865338    113.72279    113.72223    113.71545    1470660.1 
   60000            0   -94587.862    14.632697    15.948072    14.141321    13.808698    2.5643654  0.037695225  -0.22744754    113.67789    113.67677     113.6758    1468979.6 
   60500            0   -94601.666   -28.811543    -57.29619   -12.910118   -16.228319 0.0028284112 -0.00012961849  -0.04910676    113.65852    113.64242    113.64279    1467859.1 
   61000            0   -94620.173    34.010467    77.091303     4.030832    20.909266 -0.027316976 0.0020446598 -0.018319567    113.57047    113.59673    113.59079    1465461.3 
   61500            0   -94634.642   -5.2714917   -6.0883061   -7.9340012   -1.7921678 -0.038273529 0.0038111036  -0.03679355    113.55272    113.55341    113.55184    1464171.4 
   62000            0   -94646.456    12.431374    4.8640266    8.9401425    23.489952 -0.050198212 0.0053078577 -0.053993395    113.52033    113.51857    113.51251    1462797.8 
   62500            0   -94659.585   -2.7502548   -2.3597778  -0.32920842   -5.5617783 -0.063520743  0.006658008  -0.07430339    113.48376    113.48267    113.48112    1461459.8 
   63000            0   -94672.341    23.341621     18.38837     8.161134    43.475358 -0.076228614  0.008059788 -0.095158581    113.44439    113.44783    113.43528    1459914.3 
   63500            0    -94690.38    43.495173    38.798326    20.340936    71.346257  -0.12720057   0.01409034  -0.12152917    113.38985    113.39611     113.3778      1457808 
   64000            0     -94702.6    36.662172    35.895021    59.208179    14.883317 -0.098350577  0.016913321  -0.13153249    113.35256      113.341    113.35975    1456388.7 
   64500            0   -94718.493   -2.9516778   -4.6117544   -2.7281487   -1.5151304   0.14854965  -0.11518577   0.68406426    113.31459    113.31304     113.3134    1454946.5 
   65000            0   -94731.363   -74.748318   -88.772642   -81.568746   -53.903568 -0.087376856  0.009575222  -0.14389222    113.29237    113.28966    113.27897      1453919 
   65500            0   -94748.485  -0.65770428    1.8254071  0.025456894   -3.8239768 -0.068628883  -0.01109883  -0.10767365    113.22066    113.22211    113.22197    1451401.8 
   66000            0   -94762.447  -0.54662683   -2.4717025    3.9461402   -3.1143182 -0.056821796 0.0096809502 -0.089642872    113.17806    113.17609      113.179    1449715.5 
   66500            0    -94778.66   -16.213745   -13.360567   -20.830632   -14.450037 -0.044613113 -0.00034991677 -0.067177218    113.12518    113.12753    113.12548    1447731.5 
   67000            0   -94787.089   -16.460571    2.4759142   -6.9749853   -44.882643 -0.025637591 0.0099670211 -0.054884867    113.08959    113.09275    113.10701    1446594.8 
   67500            0   -94797.776    13.241072    10.659529    8.0654684    20.998218  0.010070543 0.0011396318 -0.057378526     113.0531    113.05309    113.04866    1444875.3 
   68000            0   -94809.443    55.998952    35.413312    98.771099    33.812445  0.022970304  0.017326808 -0.020122491     113.0038    112.98429    113.00415    1442797.9 
   68500            0   -94821.297   -2.5376453   -6.8091688   -1.3643859   0.56061866   0.02134101  0.046290458  -0.12606936    112.96473    112.96155    112.96162    1441466.1 
   69000            0   -94831.446   -15.051557   -16.001835   -12.330072   -16.822762  0.015536408 0.0029164701 0.0065314922    112.92315    112.92074    112.92274    1439919.2 
   69500            0   -94840.401  -0.12826624    2.6824369   -5.6128708    2.5456351  0.020312608 0.00078203821  0.014841867    112.88023    112.88236    112.87965    1438333.6 
   70000            0   -94849.994    10.689839    19.031433    5.7429369    7.2951475 -0.028977828 -0.0013894826  0.018559808    112.83273    112.83777    112.83702    1436617.7 
   70500            0    -94857.36   -5.6449966    27.081994   -19.406219   -24.610765   0.17538401   0.44338411 -0.019854715    112.79213    112.80935    112.81065    1435403.6 
   71000            0   -94866.014  -0.98906408    28.084571   -30.390611  -0.66115212  0.061132689  0.021387446   0.01354072     112.7525    112.77415    112.76303    1433845.8 
   71500            0   -94873.462   -6.5141667   -3.9532313   -9.1689238   -6.4203449   0.18065323     0.076242   0.21969018    112.72326    112.72388    112.72398      1432339 
   72000            0   -94878.625   -1.3841941    1.7253997   -2.3922754   -3.4857067 -0.012981682 -0.037193681  0.066400674    112.69753    112.69946    112.69972    1431393.5 
   72500            0   -94886.215   -7.0628163    -38.42625    14.211475    3.0263259  0.022756758 -0.0027555979  0.027190219    112.67161    112.65139    112.65557    1429893.6 
   73000            0   -94893.254   -9.2230824   -8.7157996   -8.4344975    -10.51895   0.14807831  0.021681501   0.17855953    112.62175    112.62103    112.62287    1428460.8 
   73500            0   -94898.103   0.29003469   0.19082416     1.879855   -1.2005751   0.18949901 -0.071505931 0.0040452803    112.59266    112.59252    112.59385    1427362.5 
   74000            0    -94905.62   -20.816492   -34.943206    6.9595496   -34.465821 0.0047072849 -0.098676666 -0.030014983    112.55965    112.54371    112.55947    1425889.9 
   74500            0   -94911.935   -14.014713    11.502247   -30.020862   -23.525525   0.14373151 -0.034365272  0.060120221    112.50626    112.52095    112.51928    1424416.6 
   75000            0   -94918.845    28.804998    28.023576    29.514046    28.877372 -0.0029049848  0.014872843  0.085803217    112.46329    112.46567    112.46588    1422497.6 
   75500            0   -94926.905    13.685332      3.38395    4.9046315    32.767414  0.016092295 -0.014820641 -0.020917876    112.42062    112.41991    112.40931    1420664.4 
   76000            0   -94934.063    13.519525    9.1988835    38.905845    -7.546154 0.0054610448 -0.0059435918 0.0063320413    112.37067    112.35957    112.37752    1418869.6 
   76500            0   -94942.348    18.057566    8.0344677    21.161514    24.976717 -0.036143364 -0.092757826 -0.022499943    112.31693    112.31134    112.30953    1416724.7 
   77000            0   -94952.876    11.486231    6.7856112    23.355381    4.3176998 0.0069996841 -0.0053254033 0.0088652535    112.24135    112.23506    112.24232    1413962.9 
   77500            0   -94963.079    18.639599    18.455483    18.987925    18.475389 0.0092617456 -0.00077349959 0.0051751068    112.16401    112.16304    112.16292    1411083.2 
   78000            0   -94969.251   -9.4350165   -15.444147    3.2970372   -16.157939 0.0060723912 -0.0034017512 0.0043839845    112.12439     112.1171    112.12436    1409522.3 
   78500            0   -94977.371   -6.7554548   -13.417158    3.8072872   -10.656493 0.0057207497 0.00011561607 0.0065649596    112.06069    112.05449    112.06014    1407128.5 
   79000            0   -94985.773   -18.711949    -6.855492   -30.353883   -18.926471 0.0038473388 -0.0035270927 -0.0022746643    111.98884    111.99669    111.99415    1404673.3 
   79500            0   -94991.224   -16.286218    -27.37532   -24.105725    2.6223901 0.0042206737 0.0081199422 0.0059656945    111.95329    111.95156    111.94155    1403002.1 
   80000            0   -94997.561    27.660734    30.292613    21.651437    31.038151  0.003306027 -0.0022890329 0.0019215396    111.88722    111.89059    111.88694    1400726.8 
   80500            0   -95004.831     1.168719    1.0698996    1.0014618    1.4347957 0.0030254277 0.0015193803 -0.00026719628    111.83061    111.83059    111.83043    1398560.6 
   81000            0   -95010.895   -1.7259955     -26.7009    19.621408    1.9015057 0.0024445957 -0.0038358625 -0.002211784    111.78708    111.76978    111.77632      1396580 
   81500            0   -95016.082   -4.9675458   -8.9614222   -2.5948192   -3.3463959 -0.0022302181 0.0015755117 -0.017407257    111.73311    111.73091    111.73082    1394852.2 
   82000            0   -95022.288    12.762985    6.5807349    18.185188    13.523032  0.013351145 -0.019071878  0.036704379    111.67367    111.66922    111.67116    1392596.5 
   82500            0    -95026.98    10.657928   -18.389029    24.730484    25.632329 0.0024363732 -0.0016394538 -0.00024152688     111.6388    111.62251    111.62212    1390968.1 
   83000            0   -95036.892    1.0456719   -7.1577109    9.7503292   0.54439735   0.44943932   0.55142485   0.28206635    111.53476    111.52975    111.53309    1387409.6 
   83500            0   -95039.454    21.783928     26.67278    19.705617    18.973388 -0.081534813 -0.023255445  -0.11472838    111.50232    111.50494     111.5052    1386350.8 
   84000            0   -95043.335   -22.863041   -12.402623   -29.233748    -26.95275 -0.025468087 -0.015405793  -0.02676048    111.46863    111.47492    111.47443    1385176.5 
   84500            0   -95048.944   -5.8201148   -9.9619919   -16.583913    9.0855602 -0.023013513 0.0010823029  0.010824199    111.41341    111.41616    111.40666    1382919.2 
   85000            0    -95053.16   -1.6676405    -19.16164    4.0433648    10.115354  -0.27008508  0.024993064 -0.092959734    111.37341    111.36468    111.36294    1381241.7 
   85500            0   -95055.195    12.191621    32.094857   -11.599687    16.079691  0.064361926 -0.0051611185  0.018377484    111.33553    111.35191    111.34147    1380347.4 
   86000            0   -95059.356   -44.341373   -24.019967   -51.318758   -57.685394   0.27353257   0.20271974   0.18137861    111.29919    111.30993    111.31311    1379025.2 
   86500            0   -95063.086   -15.763491   -27.300084   -2.6266558   -17.363733 -0.068902369   0.21397712 0.0024351157    111.26582     111.2567    111.26237    1377324.4 
   87000            0   -95065.555    1.4712435   -1.3891959     4.129654    1.6732724  -0.80389611   0.80033254   -1.1392349    111.23173    111.22959    111.23048    1376172.5 
   87500            0   -95068.644   -19.658856    11.989927   -56.809789   -14.156705     -0.26172  -0.22199254 -0.031417805    111.18813     111.2138    111.19746    1375029.5 
   88000            0   -95073.163    -26.83423   -34.982947   -5.5379882   -39.981754  0.059927705  0.036086057 -0.095023901    111.15084    111.14007    111.15289    1373106.3 
   88500            0   -95075.321    8.3927318   -5.1048556    2.8747033    27.408348   0.22812025    0.0783884  0.045290072    111.12183    111.11888    111.10968    1371952.7 
   89000            0   -95077.152    14.189746    21.640441    13.748762    7.1800339 -0.060407541  -0.23108802 -0.054898624    111.09167    111.09455    111.09701    1371123.7 
   89500            0   -95079.103   -6.5632931   -4.7805216   -11.241911   -3.6674472   0.36927277   0.44786894   0.28761425    111.07412    111.07676    111.07331    1370395.1 
   90000            0   -95080.363    5.8639447    5.5240758    6.6557583    5.4120002  -0.66413542  -0.42701585  -0.56217482    111.05756    111.05726    111.05709    1369750.1 
   90500            0   -95082.355   -37.275113   -38.873034   -29.702813   -43.249492 -0.068117864  0.039544729  -0.02542312    111.04169    111.03819    111.04317    1369147.7 
   91000            0   -95085.318   -1.8304338   -3.1966684     -1.69433  -0.60030312  0.078060612   0.07786221  0.057200483     110.9993    110.99877    110.99848    1367588.5 
   91500            0    -95086.96    -2.490398   -3.2122028   -2.4473486   -1.8116426  0.023884855 -0.015468994 -0.005158933    110.97905    110.97876    110.97849    1366846.3 
   92000            0    -95091.86   -28.489178   -34.550049   -14.718803   -36.198681   0.12695632  0.081820627  -0.15407243    110.92329    110.91568    110.92374    1364709.5 
   92500            0   -95095.249    -21.78702   -25.325541   -14.483383   -25.552137   0.39776373  -0.40804429   0.62933082    110.87711    110.87243    110.87695      1363034 
   93000            0   -95096.714   -1.9615027    5.1200124    8.2742218   -19.278742  -0.18472686   0.85871014  -0.54104293    110.84899     110.8495    110.85885    1362184.2 
   93500            0   -95097.657    21.338721    7.7280696    30.021191    26.266901   0.64432432  -0.75917925    0.7773759    110.84111    110.83154    110.83407    1361562.2 
   94000            0   -95099.007   -12.226152   -8.0445368   -13.647424   -14.986494    0.1650001   0.16190339   0.25023676    110.82216    110.82389    110.82476    1361121.1 
   94500            0   -95101.063   -17.040407   -11.784961   -17.857092   -21.479169   -0.2399586  -0.29314207  0.056089609     110.7935    110.79591     110.7976    1360092.3 
   95000            0   -95102.293   -19.026045    -25.85121     -18.1735   -13.053426 -0.076461656    1.4115239   -1.7190767     110.7784    110.77516    110.77434    1359366.8 
   95500            0   -95103.729   -2.2725654   -4.1359089   -3.8574986    1.1757113   0.18053165   0.30945402  -0.18158024     110.7552    110.75538    110.75315    1358579.5 
   96000            0   -95105.186    17.986182    13.938968    31.834826    8.1847535  -0.27641847  -0.38848912   0.59671679    110.73045    110.72385    110.73276    1357639.3 
   96500            0   -95106.002    2.1431233    2.1441193    2.5172101    1.7680404  0.089314114   0.50472738   -1.2182779    110.71766    110.71763    110.71789    1357223.9 
   97000            0    -95107.79  -0.19870339   -1.5528486    2.8596755   -1.9029371 -0.028956237 -0.080571047   0.42352647    110.69117     110.6893    110.69115    1356224.3 
   97500            0   -95108.313    11.033018    13.585486    2.9726867    16.540882  -0.52993537  -0.22933852  -0.23593584    110.67891    110.68254    110.67769    1355826.4 
   98000            0   -95109.375    4.0178894    3.4939965    5.0230437    3.5366279  -0.10472574 -0.061212316 -0.070721801    110.66254    110.66181    110.66229    1355183.4 
   98500            0   -95109.876    2.8167582    2.8627398    2.7760369     2.811498  0.079949891  -0.13360483  -0.11802102    110.65227    110.65157    110.65093      1354793 
   99000            0   -95110.385    11.922689     33.35106   -6.9317676    9.3487747   0.50930325 -0.025269106  0.070543971    110.63074    110.64571    110.63803    1354299.8 
   99500            0    -95112.81   -12.120375   -10.643879   -2.3675567    -23.34969   0.31062778  0.025301424  -0.15328893    110.59006    110.58876    110.59549    1352584.9 
  100000            0   -95112.971    6.1437233    3.7897415    14.201486   0.43994244  -0.21908895  0.023209535 -0.048968933    110.58758    110.58322    110.58839    1352399.9 
  100500            0   -95113.316    14.251592    19.566266    8.1172047    15.071307   -5.0327076    5.3803968   0.91351139    110.52234    110.52435    110.52315    1350085.6 
  101000            0   -95115.896     17.99293    17.204128    14.796313    21.978351  -0.60738613    1.3299474    2.2138045    110.47543    110.47775    110.47404    1348344.1 
  101500            0   -95116.365   -3.4934583    1.6968483   -9.5776579   -2.5995653   0.89601306   -1.9684759   -1.6561856    110.39502    110.39654    110.39386    1345395.1 
  102000            0   -95116.496   -4.2857179   -4.0367273   -5.4581809   -3.3622454  -0.73742186   -1.3460936   -1.3557958    110.35999    110.36039    110.35818    1344093.2 
  102500            0   -95116.522  -0.69077614   -1.0745322   0.35570959   -1.3535058   0.06290502   0.29443351   0.30238565    110.35175    110.35139    110.35241      1343813 
  103000            0   -95116.528   0.22938588    1.4900676  -0.78538731 -0.016522691  -0.19742622   -0.1437562  -0.33837453    110.35072    110.35123    110.35105    1343781.9 
  103500            0   -95116.537    2.8824293    2.3387265    2.8736317    3.4349297  -0.81443959  0.060961982   0.55710401     110.3538    110.35452    110.35345    1343888.8 
  104000            0    -95116.56    2.2805378    1.8120838    1.2550507    3.7744787    1.2673435   0.35371787   0.24634708    110.36808    110.36745    110.36567      1344369 
  104500            0   -95116.598    2.6093243    3.6212068    2.6888406    1.5179254    1.5556866   0.69835932   0.28904591    110.38717    110.38858    110.38915    1345145.1 
  105000            0   -95116.636    3.7124724    6.8879454    2.0044838    2.2449879   0.22729831   0.96349146 -0.089111809    110.40828    110.41125    110.41046    1345938.5 
  105500            0   -95116.681    -2.922545   -6.6803086   0.56468005   -2.6520064    1.5108101   0.70498344  -0.35021212    110.43625    110.43129    110.43354    1346805.2 
  106000            0   -95116.715   0.31189907    2.1805508  -0.45531611  -0.78953745    1.5747993   0.29103087  -0.17412205    110.44739    110.44801    110.44853    1347327.8 
  106500            0    -95116.73   -0.2063443    1.4167008  -0.68025677   -1.3554769  -0.38044229  -0.57122424   0.10473828    110.45237     110.4527    110.45287    1347498.8 
  107000            0   -95116.737   0.44243608   0.88451053  -0.99404662    1.4368443   0.68696775  -0.36156449  -0.23962273    110.45316    110.45331    110.45316    1347519.4 
  107500            0   -95116.744  -0.90401684    -1.574572   0.30488218   -1.4423607   0.41888435  0.097650644   0.67335708    110.45313    110.45198    110.45338    1347505.5 
  108000            0   -95116.751    1.2468931    1.0654254    1.4650431    1.2102109   -1.2391331   0.99302323  0.044462255    110.45012    110.45036    110.45081    1347417.6 
  108500            0   -95116.758  -0.40897424   -1.3657467   -1.1993011    1.3381251  -0.70257631  0.046799669   0.45941924    110.44749    110.44861    110.44749    1347323.6 
  109000            0   -95116.765  -0.94303173  -0.52874348   -1.7616209  -0.53873077  0.084528545  -0.11768054  0.042889479    110.44215    110.44294    110.44209    1347123.4 
  109500            0   -95116.772    1.5073851   0.51608863    1.4684587    2.5376079   -1.4603572  -0.18744048  -0.56831532    110.43461    110.43524    110.43449      1346845 
  110000            0   -95116.779  -0.15338171  -0.48489652     1.027586   -1.0028346  0.062335946  0.010152954   -0.1652176    110.42704    110.42723    110.42676    1346560.6 
  110500            0   -95116.788  -0.11360639   0.61603079   0.75755161   -1.7144016     1.073879   0.24639521  -0.26283932     110.4161    110.41619    110.41612    1346163.1 
  111000            0   -95116.843 -0.052666708 -0.0048408047  -0.26974526   0.11658594  -0.70392088    0.3650616   0.31574973    110.41787    110.41843      110.419      1346247 
  111500            0   -95116.863   -1.7982823   -1.8883419  -0.62548761   -2.8810175  -0.79099433   0.14192923   0.23765971    110.41817    110.41791     110.4187    1346240.6 
  112000            0   -95116.871  -0.89215106   -1.6993128   -1.0570038  0.079863405   0.52844103   -0.3393007   0.14675759    110.42031    110.42048     110.4193    1346305.5 
  112500            0   -95116.882   -0.6781926   -1.1672334   0.45747312   -1.3248176   0.96567479  -0.44381927  -0.76448805    110.41331    110.41277    110.41366    1346057.3 
  113000            0   -95116.889 -0.097681931 -0.097480472 0.0031379804   -0.1987033   0.22021257   0.41441269   0.18008106    110.40967    110.40977     110.4098    1345929.2 
  113500            0   -95116.892   -1.0114477   -1.2094355   -1.4584211  -0.36648638  -0.31477182  -0.31491366  -0.14873378    110.40634    110.40649    110.40609    1345803.5 
  114000            0   -95116.894  -0.61004215  -0.90333576  -0.72246172  -0.20432896  -0.52235863   0.26884229   0.57142829    110.40442    110.40384    110.40349    1345716.2 
  114500            0   -95116.896  -0.15834879  -0.16871156 -0.058523284  -0.24781153   0.15436531  -0.50688978  -0.19101627    110.40258    110.40307    110.40283    1345676.3 
  115000            0   -95116.899 -0.045755018  -0.11428363  -0.08906655  0.066085126   0.34538128   0.16482991 -0.049906579    110.40062    110.40033     110.4004    1345589.2 
  115500            0   -95116.902   0.21988122   0.71835039   0.47984717  -0.53855391   0.33667242  -0.21436704  -0.18603494    110.40247    110.40268    110.40347    1345677.9 
  116000            0   -95116.905    1.4745256    1.4173207    1.3449812    1.6612749  -0.17894815   0.18655623  -0.25869019    110.40683    110.40672    110.40693    1345822.6 
  116500            0   -95116.909   0.23214746  -0.39634913   0.39468644   0.69810508   -1.5465251   0.46235874     0.116387    110.41287    110.41294    110.41203      1346034 
  117000            0   -95116.912   0.13307556  -0.53031471   0.65903839   0.27050301  -0.51150155  -0.39678586   0.12069499    110.41853    110.41872     110.4183    1346250.2 
  117500            0   -95116.915   0.05178427 -0.097224047 0.0076346167   0.24494224    0.6898822   0.52650495   0.23952672    110.42333    110.42341    110.42223    1346413.6 
  118000            0   -95116.917   0.60759156   0.63073543   0.26480962   0.92722964   0.78229001 -0.079015788   0.37034098    110.42607    110.42577     110.4252    1346512.1 
  118500            0   -95116.921    0.9309582    1.6119223     1.357911  -0.17695875   0.61683245  -0.80096803  -0.33736022    110.42722    110.42655    110.42874    1346578.7 
  119000            0   -95116.928   0.21786207   -0.1592803    1.4793185  -0.66645197  -0.41826908   0.99108026  -0.93576042    110.42688    110.42684    110.42961    1346588.7 
  119500            0   -95116.937   0.32533042   0.22348308   0.17651232   0.57599585   -1.0942951  -0.85892069   -1.7723989    110.42304    110.42372    110.42473    1346444.4 
  120000            0   -95116.949   0.26414967   0.17913568   0.80195898  -0.18864564  -0.73539993   0.41483627   0.56975217    110.41173     110.4142    110.41359    1346054.6 
  120500            0    -95116.97    2.7850905    5.2999615    2.5889482   0.46636175  -0.51083323    0.1354338     1.025667    110.39338    110.39406    110.39333    1345338.5 
  121000            0   -95117.009   -2.1094599   -1.0539595   -2.6707393   -2.6036809    2.2206295  -0.78241848    2.3255819    110.36398    110.36297    110.36428    1344247.6 
  121500            0   -95117.185   0.30234452  -0.81913568   0.45466932    1.2714999   0.56984948    0.5886411  -0.16566248    110.34276    110.34066    110.33921    1343412.1 
  122000            0   -95117.281    2.7228496     6.554546    4.8056677   -3.1916649   0.67299198   0.33640878  -0.26834976    110.36984    110.37134    110.37527    1344554.7 
  122500            0   -95117.307   0.17214079   0.26466586  0.085641894   0.16611461   0.13140388   0.20574128   0.13001518    110.38729    110.38683    110.38595    1345086.3 
  123000            0    -95117.31   0.23107954  -0.16666315   0.39995915   0.45994262   -0.2130634  -0.28828924   0.19783837    110.38676    110.38641    110.38631    1345079.1 
  123500            0   -95117.311   0.90112827    2.0909948   0.27374568   0.33864437   0.04855529   0.12062548  -0.12778117    110.38286    110.38376    110.38396    1344970.6 
  124000            0   -95117.315   0.29527775    0.6261063   0.34703342 -0.087306471   0.42678622   0.42012514  -0.14280091    110.37304    110.37353     110.3741    1344606.3 
  124500            0   -95117.318   0.20270314   0.45867015  -0.27098501   0.42042429   0.38846631   0.14783739 -0.048024982    110.36343    110.36378     110.3646    1344254.6 
  125000            0   -95117.323   0.26197506   0.36209076   0.15660989   0.26722453  -0.81446333  -0.54116321   0.40157802    110.35793    110.35788    110.35768    1344031.5 
  125500            0   -95117.331    2.3840589    1.1719105    4.3160546    1.6642115  -0.74159616  -0.61820879   0.57813485    110.35516    110.35365     110.3513    1343868.6 
  126000            0   -95117.342   0.53249925    1.4058956 -0.037572496    0.2291746   0.21860225  -0.09887359   0.38950405    110.35466    110.35481    110.35174    1343881.9 
  126500            0   -95117.348     1.505692   0.25110061   0.89789008    3.3680854   0.89889289   0.27984483   -1.1326375    110.35417    110.35372    110.35397    1343889.9 
  127000            0   -95117.358   0.19449117   0.12188631   0.18646989   0.27511731   0.87961206   0.71503402   -1.0609165    110.35375    110.35486    110.35678    1343932.9 
  127500            0   -95117.376    1.3321169     3.328753  -0.55578206    1.2233798  -0.59510963  -0.68114333  -0.05203487    110.35163    110.35568    110.35892    1343943.1 
  128000            0   -95117.407    1.2780146   0.43159708    2.0822102    1.3202364   -2.8213361   0.76898687    3.8120466    110.34112     110.3429    110.34509    1343491.2 
  128500            0   -95117.475    4.5588504   0.31499637    10.917004    2.4445509   -2.7520591 -0.072624969    4.2823008    110.30126    110.29659    110.29992    1341892.6 
  129000            0   -95117.567   0.58801411   0.70977823   0.14603369   0.90823042   0.94848294  -0.82399055    1.3491782    110.21805    110.21471    110.21363    1338836.7 
  129500            0   -95117.632   0.68823169   0.46268317   0.63828889     0.963723    3.1962079   -2.5620445   -1.5126116    110.13021    110.12779    110.11919    1335569.2 
  130000            0   -95117.667   0.62903865   0.68421096   0.79144831   0.41145669    1.6713234   -2.4103469   -2.1004937    110.06386    110.06505    110.05879    1333272.4 
  130500            0   -95117.692   0.31430777  -0.05247058   0.16169516   0.83369874  -0.81862349 -0.084746167   0.62831366    110.01194     110.0133    110.01478    1331484.3 
  131000            0   -95117.714   0.52066783    1.0372195   0.36742609   0.15735794  -0.74802669    1.1881604    0.6912534    109.95679    109.95819    109.96289    1329522.8 
  131500            0   -95117.745    2.2022171     6.619642    1.5462209   -1.5592116    1.0775049    0.9737174    1.2904786      109.895    109.89714    109.90057    1327285.2 
  132000            0   -95117.767    2.9976603    2.4281581    1.0314184    5.5334044   0.64573576  -0.51202463  -0.30505313    109.86199     109.8647    109.86171    1326025.9 
  132500            0   -95117.776   0.13362748   0.14485962   0.18721134  0.068811477   0.40833965   -1.0191456  -0.51806325    109.85283    109.85461    109.85307    1325689.2 
  133000            0   -95117.782  0.068754411  0.063103559   0.03729611   0.10586357   0.44594276  -0.34039441   0.34172557    109.84956    109.85029    109.84973    1325557.2 
  133500            0   -95117.785  0.054218988  0.041199132  0.023060433    0.0983974    0.3209235 -0.050897254   0.13549802    109.84965    109.85048    109.85062    1325571.5 
  134000            0   -95117.787   0.41505342  -0.21370912   0.56445824   0.89441115   0.11954583  -0.79589118  -0.13905296    109.85006    109.85037     109.8501    1325568.7 
  134500            0   -95117.791   0.16535402 -0.097864823    0.4955247   0.09840219   0.05821862  -0.64658171   0.21939838     109.8492    109.85038    109.84906    1325546.1 
  135000            0   -95117.798    1.3892256   0.81920402   0.43988757    2.9085853   0.10550825   0.33404793    0.7072715    109.84552    109.84719    109.84343    1325395.1 
  135500            0   -95117.805   0.69051938    1.2291723   0.47669173   0.36569409 -0.070529942     1.442654  -0.25503946    109.83935    109.83945    109.83944    1325179.3 
  136000            0   -95117.812    1.6137333    1.6666208     3.383217  -0.20863794  -0.33022197  0.099344817  -0.98683985    109.83273    109.83126    109.83326    1324925.9 
  136500            0   -95117.822   0.36831004   0.58448927   0.36027427    0.1601666  -0.77904028   -1.0623129   0.28671273    109.82521    109.82375    109.82538    1324649.6 
  137000            0   -95117.831   0.25753962   0.24954843   0.35361022    0.1694602   -1.2513481   0.56808636   0.98344831    109.82485    109.82293    109.82555    1324637.5 
  137500            0    -95117.84   0.73140662   0.63462178 -0.061024373    1.6206225  -0.63905232    2.4578233 -0.0027938699    109.83031    109.83002    109.82932    1324834.3 
  138000            0   -95117.846  0.097940711   0.12411853   0.10918637  0.060517238  -0.36218942    1.9914267   -0.4833469     109.8388    109.83835    109.83685      1325128 
  138500            0    -95117.85   0.58433999    1.0209031   0.65355924  0.078557656  -0.61868213    1.1867458  -0.25182096    109.84593    109.84391    109.84449    1325373.4 
  139000            0   -95117.852   0.23625775  -0.21778498   0.27203319   0.65452505  -0.88170695    1.0301516  -0.23896525    109.85237    109.84867    109.84977    1325572.2 
  139500            0   -95117.854       0.2593   0.75527253   0.22538395  -0.20275648  -0.85448472   0.95441293   0.15656567    109.85575    109.85261    109.85488    1325722.2 
  140000            0   -95117.855   0.11690003  0.058706314   0.18722651   0.10476727   -0.3937089   0.93646904   0.19036018    109.85792    109.85513    109.85684    1325802.5 
  140500            0   -95117.856   0.37443912   0.11547831 -0.098584396    1.1064234  -0.64875243    1.0713248  -0.47838305    109.85907    109.85656    109.85749    1325841.4 
  141000            0   -95117.857   0.16561899 -0.075533661    0.3329777   0.23941294  -0.98847496    1.0679927  -0.61210445    109.85902    109.85642     109.8576    1325840.6 
  141500            0   -95117.857    0.3327853   0.19587861   0.12169021   0.68078708  -0.46400804   0.81880937  -0.39294431    109.85921    109.85597    109.85689    1325828.8 
  142000            0   -95117.858   0.12600598   0.34723697 -0.015615552  0.046396527   -0.2050475   0.76255259   0.26836353    109.85866    109.85545    109.85654    1325811.7 
  142500            0   -95117.859   0.14933424   0.14508949   0.04938708   0.25352615   0.15024006   0.65559852   0.70522811    109.85838    109.85476    109.85611    1325794.7 
  143000            0    -95117.86   0.13465761   0.34071053 0.0071429297  0.056119376  -0.11097606     0.630198   0.27322804    109.85848     109.8549    109.85693    1325807.6 
  143500            0   -95117.862   0.65946339   0.47879813    1.2321269   0.26746511  -0.25783782 -0.011235551  -0.68175156    109.86019    109.85777    109.86016    1325901.8 
  144000            0   -95117.865   0.13482109   0.15606207   0.15663822  0.091762977   0.47125118  -0.84415851   -1.2355323     109.8653    109.86555    109.86675    1326136.8 
  144500            0   -95117.867    0.2567768  -0.01577616   0.37124105   0.41486552    1.1804308   -1.4296219  -0.47137255    109.87343    109.87658    109.87601      1326480 
  145000            0    -95117.87   0.83079612  0.079489151    1.6420518   0.77084737    1.1722072    -1.498844  -0.20447948    109.88479    109.88947    109.88742    1326910.6 
  145500            0   -95117.873   0.47640729   0.29244929     1.182176 -0.045403389    1.6369933   -1.4620813    1.0457467    109.89855    109.90368    109.90211    1327425.7 
  146000            0   -95117.875   0.71800777   0.55961326   0.23314456    1.3612655    1.3551015   -1.8845456    0.6278819    109.91072    109.91521     109.9141    1327856.8 
  146500            0   -95117.876   0.43541023  -0.33433475   0.80340213    0.8371633    1.3107388   -2.2243296   0.70036404     109.9208    109.92461    109.92345    1328205.2 
  147000            0   -95117.877   0.38115311   0.31660852   0.66627523   0.16057558    1.3852362   -3.4797066   0.41544067    109.92978    109.93418    109.93269    1328541.1 
  147500            0   -95117.882  -0.35594472  -0.94842843  -0.60966988   0.49026415    1.3465565   -4.0866247   0.12546882    109.94087    109.94596    109.94375      1328951 
  148000            0   -95117.896  -0.59303821   0.38522347   -1.4637792  -0.70055886    2.3813821   -1.5850691   0.22776067     109.9368     109.9417     109.9401    1328806.4 
  148500            0    -95117.92  -0.38824768   0.71821737   -1.3977125  -0.48524797    2.6985575   -2.2372407   0.73117786    109.93125    109.93855    109.93345    1328620.9 
  149000            0   -95117.952    -1.161839  -0.18909884   -3.8370893   0.54067118  -0.21327528   -3.3173381  -0.59297987    109.93018    109.93311    109.93176    1328521.5 
  149500            0   -95117.972    2.1301468    2.0416879    2.2321882    2.1165644   0.44316753   -1.9386004   0.22792097    109.93493     109.9349    109.93474    1328636.6 
  150000            0   -95117.983  0.092310026   0.04755012 -0.0043283953   0.23370835    1.3319177  -0.88201286   0.83507967    109.94201     109.9439    109.94178    1328916.1 
  150500            0   -95117.989    0.2576639   0.61398122   -1.0656682    1.2246787   0.12632264  -0.64093318   -0.5760219    109.94804    109.95122     109.9496      1329172 
  151000            0   -95117.999   0.24138586 -0.076380791   0.50646638   0.29407199    0.1236877  -0.70491804   0.20535137    109.95062    109.95291    109.95211    1329253.9 
  151500            0   -95118.001  0.018051077 -0.011927582  0.022971043  0.043109769   0.19785918  -0.65718591 -0.078966915    109.94201    109.94422    109.94182    1328920.6 
  152000            0   -95118.002  0.026805038  0.045076025   0.01213138  0.023207708   0.40893988   0.23993437   0.40792999     109.9371    109.93788    109.93618    1328716.4 
  152500            0   -95118.003   0.46145059   0.77387851 -0.040578109   0.65105137  -0.55739255   0.10351611 -0.0056181818    109.93813    109.93696    109.93836    1328744.1 
  153000            0   -95118.004   0.57011825   0.82827896   0.74995054   0.13212524 -0.082562228  -0.75801713    0.3247985    109.94299    109.94281     109.9447    1328950.1 
  153500            0   -95118.005   0.31000139  0.097482757    0.4251606   0.40736079   0.29544874  -0.20303665  -0.62270667    109.95413    109.95408    109.95304    1329321.9 
  154000            0   -95118.016  0.089791494   0.39770701 -0.00079882426  -0.12753371  -0.02272064    0.3927648  -0.27686191    109.95876    109.95781    109.95809    1329483.9 
  154500            0   -95118.024 -0.043157609 -0.040697374 -0.020739651 -0.068035803  0.083131712   0.65219664   0.20983345    109.95671    109.95704    109.95739    1329441.4 
  155000            0   -95118.027 -0.069588175  -0.06493453 -0.066933629 -0.076896367   0.02933039   0.24589166  0.098773256    109.95874    109.95854    109.95878    1329500.8 
  155500            0   -95118.029   -0.1210606   0.27990427  -0.57470224 -0.068383816  -0.10051464  0.062172624 -0.024966124    109.96167    109.96179     109.9624    1329619.5 
  156000            0    -95118.03  -0.15346444 -0.026453407  -0.26804548  -0.16589444  -0.07041745  0.075815811  -0.15286594    109.96704    109.96738    109.96718    1329809.8 
  156500            0    -95118.03 -0.038654667  -0.10267308  0.031968693 -0.045259617  -0.02626951  0.058012989 -0.010101532    109.96992    109.97006    109.97049      1329917 
  157000            0   -95118.031  -0.29518901   0.24101014  -0.67570093  -0.45087624  0.095674552  -0.24079333   0.13623275    109.97155    109.97176    109.97164    1329971.1 
  157500            0   -95118.032  -0.45597208  -0.58611634   -0.2996441  -0.48215581   0.12226212  0.024478927  -0.23873693    109.97386    109.97315    109.97266    1330028.3 
  158000            0   -95118.033   -0.2081542  -0.26446455    0.4211998  -0.78119786   -0.2024264   0.16035193   0.11749415    109.97328     109.9732     109.9728    1330023.5 
  158500            0   -95118.034  -0.26474416   -0.2070459   -0.2041427  -0.38304387 -0.046717803   0.20173736 -0.018625162    109.97253    109.97221    109.97206    1329993.6 
  159000            0   -95118.034  -0.22419842  -0.15708229  0.067976555  -0.58348954 -0.012474697  -0.26593346   0.33896184    109.97186    109.97136    109.97093    1329961.5 
  159500            0   -95118.035 -0.092195388  -0.10214288  -0.13635857 -0.038084719 -0.039121649  -0.44597794    0.2269927    109.97087     109.9704    109.96955    1329921.2 
  160000            0   -95118.035 -0.083857829   -0.1893644 -0.093448151  0.031239062 -0.031898355  -0.55197484  0.082445591     109.9694    109.96959     109.9683    1329878.5 
  160500            0   -95118.035 -0.087184902  -0.11648253  0.099995318  -0.24506749 -0.00015503253  -0.65357911   0.27381863    109.96838    109.96875    109.96843    1329857.6 
  161000            0   -95118.036  -0.17361005  -0.08592189  -0.14701429  -0.28789398   0.10697965  -0.62368446   0.13322639    109.96854    109.96956    109.96985    1329886.5 
  161500            0   -95118.037  -0.26766613    0.4262117  -0.33401126  -0.89519883   0.21157615   -0.1945938   0.58224078    109.96924    109.97189    109.97111    1329938.4 
  162000            0   -95118.038  -0.24340795  -0.20571033  -0.25518266  -0.26933086   0.29181257   0.25127368   0.32341141    109.97196    109.97676    109.97442    1330070.1 
  162500            0    -95118.04   -0.3441232   0.26236913   -0.5668754  -0.72786334  0.041269515  -0.28892969  -0.33375475    109.97619    109.98218    109.98091    1330265.4 
  163000            0   -95118.041 -0.069321081 -0.052684293 -0.078330999 -0.076947953    0.7701041  -0.45767612   0.37993715     109.9814    109.98721    109.98706    1330463.7 
  163500            0   -95118.042  -0.13153344  -0.13629358    -0.128144  -0.13016273   0.74799455 -0.035468934   0.41861752    109.98663    109.99201    109.99271    1330653.4 
  164000            0   -95118.042  -0.19004143  -0.19867205  -0.17888337  -0.19256887   0.87323016   -0.3106513   0.20375483    109.99438    109.99898    109.99908    1330908.4 
  164500            0   -95118.043  -0.21329233  -0.15057726   -0.2242891  -0.26501063 -0.070977098   0.25210267  0.031879716    110.00245     110.0066    110.00665      1331190 
  165000            0   -95118.044  -0.47167252  -0.51860592  -0.32975853  -0.56665311 -0.010312616  0.053178474  -0.22525876    110.00891    110.01221    110.01223    1331403.5 
  165500            0   -95118.044  -0.16732525  -0.11785272 -0.0011782021  -0.38294483  -0.11144947  -0.61854687   0.16090189    110.01338    110.01528    110.01561    1331535.7 
  166000            0   -95118.044  -0.16257138  -0.15002589  -0.17240388  -0.16528438   0.24587635  -0.34093811 -0.082010049    110.01622    110.01703    110.01774    1331617.1 
  166500            0   -95118.045 -0.045874255 -0.029828642 -0.020895048 -0.086899077   0.17432436  -0.40838266   -0.2515067    110.01912      110.019    110.02001    1331703.4 
  167000            0   -95118.045  -0.35786243  -0.37869337    -0.336417  -0.35847692   0.47556074  -0.32202771  0.064943206    110.02273     110.0217    110.02214    1331805.7 
  167500            0   -95118.046  -0.20199839  -0.18716597  -0.20422492  -0.21460428 -0.065280118   0.10194737  -0.25798683    110.02695    110.02418    110.02425    1331912.3 
  168000            0   -95118.046  -0.26310476  -0.10905048  -0.24832816  -0.43193564  -0.17834068 -0.023408879     -0.19849    110.03021    110.02582    110.02607    1331993.7 
  168500            0   -95118.046  -0.35588253   -0.1508672  -0.59956098   -0.3172194 -0.047009443 -0.091190265  0.055186355    110.03203    110.02714    110.02708    1332043.8 
  169000            0   -95118.047  -0.14148556   0.22622012  -0.19417384  -0.45650297   0.38900578  -0.22379726  -0.22256522    110.03409    110.02834    110.02846      1332100 
  169500            0   -95118.047 -0.054319866  -0.10965031 -0.053848675 0.00053938703   0.51998606  -0.25202865  -0.13127299    110.03559    110.02894    110.02929    1332135.5 
  170000            0   -95118.048  -0.24516031  -0.56072455   0.02538636  -0.20014273   0.39970518   0.16228791  -0.38698222    110.03569    110.02897    110.03002    1332145.9 
  170500            0   -95118.048 -0.048766098 -0.083036033 -0.069569691 0.0063074311   0.12162055   0.11428845  0.025473781    110.03509    110.02895    110.03045    1332143.7 
  171000            0   -95118.049 -0.062825888  -0.12365491 -0.0082476982 -0.056575058 0.0012634003 -0.048948673   -0.1210913     110.0352    110.02981    110.03079    1332159.5 
  171500            0   -95118.049 -0.075839217  0.015178513 -0.095023625  -0.14767254   -0.1393132 -0.0097360223  -0.27634741    110.03522    110.03112    110.03141    1332183.1 
  172000            0   -95118.049  -0.18593799  -0.16679114  -0.18444288  -0.20657995   0.19365119  -0.27815181  0.016029594    110.03484     110.0326    110.03265    1332211.4 
  172500            0   -95118.049 -0.079365587  -0.02747827  -0.13001739 -0.080601099   0.40219125  -0.38584825 -0.051943014    110.03436    110.03414    110.03411    1332241.9 
  173000            0    -95118.05  -0.23379239  -0.28889762  -0.27015297  -0.14232657  0.094452941  -0.52455952  -0.33201176     110.0342    110.03629    110.03606    1332289.6 
  173500            0    -95118.05  -0.15261827  -0.17987554  -0.17343777  -0.10454151  -0.41842925  -0.10099107  -0.17565447    110.03442    110.03856     110.0387    1332351.7 
  174000            0    -95118.05  -0.17467848  -0.23434432  -0.22991683 -0.059774281  -0.60523637  -0.13977082  0.021000646    110.03529    110.04109    110.04025    1332411.7 
  174500            0   -95118.051  -0.33753286  -0.40949054  -0.24492659  -0.35818146  -0.24843813  -0.32064032   0.21034906    110.03641    110.04352     110.0424    1332480.7 
  175000            0   -95118.051  -0.24606244  -0.25199312   -0.2616216  -0.22457258  -0.39005382  -0.33759634   0.56910662    110.03771    110.04631    110.04455    1332556.3 
  175500            0   -95118.051 -0.069311644  -0.23524099   0.15651733  -0.12921128 -0.058342777  -0.36079155   0.40619777    110.03952     110.0486    110.04693    1332634.7 
  176000            0   -95118.052 -0.070391708  0.053210982 0.0023275545  -0.26671366   0.20834014  -0.30184672    0.2918985    110.04151    110.05007    110.04876    1332698.8 
  176500            0   -95118.052 -0.076611502  -0.10179628 -0.036071664 -0.091966566   0.18791053 -0.013412508    0.1444155    110.04372     110.0506    110.04972    1332743.6 
  177000            0   -95118.052  -0.21345048 -0.089952097  -0.36789543  -0.18250392  -0.14457132   0.31377395  0.075941845    110.04572    110.05155    110.05072    1332791.5 
  177500            0   -95118.052  -0.21238446  -0.25495453  -0.16176789  -0.22043097   0.14527588    0.2424704 -0.014881414     110.0487    110.05271    110.05138    1332849.6 
  178000            0   -95118.052  -0.06771958 -0.099960783 -0.098919898 -0.004278059 -0.017652405   0.47953598   0.49479113    110.05248    110.05403    110.05255    1332925.5 
  178500            0   -95118.053  -0.20629766  -0.32789108   -0.2439407 -0.047061204 -0.084821096    0.4902933   0.20267798    110.05628    110.05526     110.0538    1333001.6 
  179000            0   -95118.053  -0.29457004   -0.3172666  -0.34214322   -0.2243003  0.026018371   0.63239888  -0.20701079    110.05978     110.0561    110.05502      1333069 
  179500            0   -95118.053 -0.048141215 -0.085726747 -0.073620938  0.014924039  -0.23918939   0.55732442  -0.25827012    110.06276    110.05668    110.05632    1333127.9 
  180000            0   -95118.053 -0.088694917  -0.23235958  0.062122595 -0.095847762   -0.3700061   0.37471463  -0.64905082    110.06536    110.05767    110.05736    1333183.9 
  180500            0   -95118.054 -0.097241266 -0.050660671   -0.1061396  -0.13492353   -0.4671593   0.58770569  -0.57658458    110.06728    110.05889    110.05872    1333238.4 
  181000            0   -95118.054  -0.14614586  -0.23374667  -0.11513668 -0.089554232  -0.27210877   0.73333785  -0.15085726    110.06907    110.06052    110.06042    1333300.5 
  181500            0   -95118.054  -0.16115827  -0.26768302 -0.074092141  -0.14169965  -0.49845734   0.49574352  -0.14818076    110.07078    110.06245    110.06265    1333371.6 
  182000            0   -95118.054  -0.17354219  -0.10991112  -0.20118138  -0.20953409  -0.70821701   0.56477983 -0.054794781    110.07277    110.06465    110.06534    1333454.9 
  182500            0   -95118.055   -0.1633287  -0.12954048  -0.19336088  -0.16708475  -0.41669117   0.55571557    0.1333782    110.07448    110.06685    110.06819    1333536.9 
  183000            0   -95118.055    -0.204888  -0.23440507  -0.20780227  -0.17245665   -0.4853671  0.087965785  -0.27682973    110.07612    110.06947    110.07137    1333626.9 
  183500            0   -95118.055  -0.14553243  -0.29481834  -0.14746623 0.0056872925  -0.28820266 -0.0091039977  -0.29669851    110.07734    110.07248    110.07486    1333720.5 
  184000            0   -95118.056 -0.087496537  0.056894326  -0.11338413   -0.2059998 -0.053453387   0.31279344  0.022963256    110.07772     110.0756    110.07811    1333802.3 
  184500            0   -95118.061 -0.005367191  0.054500966 -0.0031502483 -0.067452291 -0.0017430573   0.23373945   0.12164729    110.07738    110.07692    110.07918    1333827.2 
  185000            0   -95118.064 -0.016270668 -0.013303192 -0.022819736 -0.012689077  -0.11745994   0.27848295  -0.34653501    110.07514    110.07453    110.07558    1333727.4 
  185500            0   -95118.065  -0.07318523 -0.040783336 -0.060523666  -0.11824869   -0.1503182    0.2892616   -0.2289737    110.07188    110.07126    110.07074    1333589.7 
  186000            0   -95118.065  -0.36807428  -0.29635668  -0.45070477   -0.3571614  -0.12537637   0.40966044  -0.13481169     110.0713     110.0705    110.06992    1333563.5 
  186500            0   -95118.066 -0.026099731 -0.046016991 -0.029725379 -0.0025568234  -0.11647681   0.18916939  -0.19237013    110.07083    110.06955    110.06921    1333537.6 
  187000            0   -95118.066 -0.036727369 -0.039121207 -0.048915694 -0.022145206   0.17898339 0.0013119796 -0.024095223    110.07067    110.06944    110.06915    1333533.7 
  187500            0   -95118.066 -0.024556856  0.019863353 -0.030285497 -0.063248425  0.024590576  -0.19377856   0.18096336    110.07045    110.06994    110.06945    1333540.7 
  188000            0   -95118.066  -0.10305837 -0.085455247  -0.20452306 -0.019196809  -0.26142373  -0.20380187   0.42965791    110.07032    110.07045    110.06986    1333550.3 
  188500            0   -95118.066  -0.06351593  0.090520643  -0.11828114  -0.16278729  -0.19803229  -0.44493545   0.37650677    110.07008    110.07075    110.07081    1333562.6 
  189000            0   -95118.066 -0.080530365 -0.081138139  -0.10211537 -0.058337586  -0.10216143   -0.4178467   0.20181748    110.07016    110.07112    110.07152    1333576.6 
  189500            0   -95118.066 -0.033433706  -0.05596099  0.019436258 -0.063776386 0.0098504001  -0.36193578   0.17471641     110.0702    110.07136    110.07225    1333588.8 
  190000            0   -95118.066  -0.16140959 -0.053881992  -0.17456162  -0.25578516   0.38389553  -0.50630618 -0.016741245    110.07002     110.0717    110.07257    1333594.6 
  190500            0   -95118.066  -0.06248641   0.06490596  -0.18633959 -0.066025604   0.51434409  -0.30784674   0.18502179    110.06998     110.0719    110.07255    1333596.3 
  191000            0   -95118.067 -0.034036908 -0.070023817 -0.049557521  0.017470616   0.24471904  -0.25576898   0.19801505    110.07018    110.07196    110.07241    1333597.8 
  191500            0   -95118.067 -0.033614946 -0.084816721 0.0082970929 -0.024325209   0.16342884  -0.22217108  0.042986418    110.07035    110.07189     110.0722    1333596.4 
  192000            0   -95118.067 -0.062983804 -0.062957486 -0.061490595 -0.064503331    0.2200876  -0.16643592   0.10793539    110.07028     110.0715     110.0721    1333589.6 
  192500            0   -95118.067 -0.098992696 -0.051130263  -0.23489388 -0.010953946   0.13959326 -0.077273567   0.05007237    110.07002    110.07108    110.07143    1333573.3 
  193000            0   -95118.067 -0.088625522  -0.10579696 -0.093383244 -0.066696361   0.13615171 -0.099731002 -0.066281302     110.0699    110.07062    110.07043    1333554.2 
  193500            0   -95118.067 -0.058374624 -0.058927202 -0.058654111 -0.057542558    0.1057887 -0.090345665 -0.064416427    110.06983    110.07008    110.06935    1333533.6 
  194000            0   -95118.067 -0.042748869 -0.042926137 -0.033017996 -0.052302475 -0.074745594   0.14491128  -0.11701166    110.06952    110.06938    110.06828    1333508.4 
  194500            0   -95118.067 -0.041231621 -0.032349363  -0.04663848 -0.044707022  -0.19858598   0.41169074 -0.068733357    110.06913    110.06861    110.06702    1333479.2 
  195000            0   -95118.067 -0.030558061  -0.04002999 -0.017972744 -0.033671449   -0.2349998   0.28691382  -0.17189373    110.06877    110.06782    110.06606    1333453.6 
  195500            0   -95118.067  -0.16022377  -0.14999201 -0.086782231  -0.24389706  -0.21001883   0.04154748  -0.24833998    110.06798    110.06684    110.06538    1333423.9 
  196000            0   -95118.068   -0.1909635  -0.30123843  -0.16868101  -0.10297106  0.024020083  -0.26046285  0.059164414    110.06686    110.06579    110.06435    1333385.2 
  196500            0   -95118.068 -0.083450287 -0.081998542 -0.084101013 -0.084251305 0.0048611064  -0.51494155  0.085018079    110.06621    110.06493    110.06329      1333354 
  197000            0   -95118.068  -0.18494098  -0.26259639   -0.1973913 -0.094835258  -0.10292769  -0.58617486  0.078063939    110.06538    110.06412    110.06268    1333326.8 
  197500            0   -95118.068 -0.057942554 -0.038609908 -0.090086327 -0.045131428 -0.083792638  -0.46762847   0.18668433    110.06453    110.06377    110.06251    1333310.2 
  198000            0   -95118.068  -0.06485608 -0.046304116 -0.067687163 -0.080576962 -0.092866567  -0.20158376  0.091388502    110.06379    110.06357    110.06232    1333296.4 
  198500            0   -95118.068  -0.17008278 -0.032856009  -0.20645758  -0.27093474    0.1057467  0.098540991 -0.076866933    110.06268    110.06285    110.06222    1333273.1 
  199000            0   -95118.068  -0.04455757 -0.0060045794  -0.04884703   -0.0788211   0.29136805   0.13519679  -0.14909757    110.06153    110.06207    110.06176    1333244.1 
  199500            0   -95118.068 -0.094635627  -0.20365396 -0.064609342 -0.015643576   0.40787976   0.12886349  -0.10496651    110.06082    110.06189     110.0615    1333230.1 
  200000            0   -95118.068 -0.049035502 -0.049083264  -0.05120782 -0.046815423   0.36434039 -0.079352098  0.023201504    110.06023    110.06162     110.0616      1333221 
  200500            0   -95118.068 -0.088469496  -0.16322072   -0.1060473 0.0038595364   0.29257905  -0.21157547   0.09716695    110.06004    110.06145    110.06156    1333216.2 
  201000            0   -95118.068 -0.077167777 -0.023168042  -0.21511665 0.0067813565  0.073626565  -0.20379699   0.02495082    110.05993     110.0615    110.06143    1333213.8 
  201500            0   -95118.068 -0.067320122  -0.12017548 -0.039605409  -0.04217948  -0.16225838 -0.045489066   0.17180573    110.05984    110.06143    110.06151    1333212.9 
  202000            0   -95118.069  -0.13032492  -0.20054055 -0.075174975  -0.11525922  -0.12526598  0.067310817   0.13378731    110.05993     110.0613    110.06177    1333215.6 
  202500            0   -95118.069 -0.047519379 -0.0058655079 -0.043013091 -0.093679537 -0.058959988  0.054097314 -0.0026952356    110.06011    110.06123    110.06223    1333222.4 
  203000            0   -95118.069 -0.077638083   -0.0261267 -0.057870503  -0.14891704  0.029101996  0.022979114 -0.024256419    110.06034    110.06125     110.0624    1333227.6 
  203500            0   -95118.069 -0.033938793  -0.02375232 -0.033573586 -0.044490471  0.014324208  0.079954962 -0.045639444    110.06043    110.06122    110.06232    1333227.3 
  204000            0   -95118.069 -0.056826969  -0.10054911 -0.049621236 -0.020310558 -0.048854536  0.018534445 -0.075476686    110.06053    110.06123     110.0622    1333227.1 
  204500            0   -95118.069 -0.076461695 -0.041283044 -0.089879215 -0.098222827  -0.10644393 -0.099071946  -0.10578331    110.06073    110.06107    110.06216    1333227.2 
  205000            0   -95118.069 -0.057345259   -0.1086386   -0.0266765  -0.03672068  -0.15490756 -0.029437585 -0.037859076    110.06096    110.06087    110.06184    1333223.6 
  205500            0   -95118.069 -0.049444772  -0.11691485 -0.00026445279 -0.031155012  -0.15871761 -0.054823306  0.095801661    110.06096    110.06076    110.06123    1333214.9 
  206000            0   -95118.069 -0.055936607 -0.020512577 -0.079350026 -0.067947217 -0.082411227  -0.17601574  0.088764394    110.06069    110.06042    110.06069    1333201.1 
  206500            0   -95118.069 -0.049109485 -0.046736476 -0.050373671 -0.050218306  0.024129416  -0.15785274 -0.016559401    110.06024    110.05994    110.05993    1333180.6 
  207000            0   -95118.069 -0.075318864  0.047843963  -0.10087843  -0.17292212  0.012128339  -0.12428508 -0.023516313    110.05988    110.05953    110.05855    1333154.5 
  207500            0   -95118.069 -0.032621643 -0.028949058 -0.031063125 -0.037852747   0.19935127   -0.1807071  -0.11724777    110.05967    110.05886    110.05727    1333128.3 
  208000            0   -95118.069 -0.037064978 -0.050815809 -0.018939606  -0.04143952   0.20420038  -0.31985238  -0.14852159    110.05927    110.05813    110.05666    1333107.2 
  208500            0   -95118.069 -0.059440856 -0.012617487 -0.079968021  -0.08573706   0.21811387   -0.4117052 -0.021092113    110.05866    110.05764    110.05612    1333087.4 
  209000            0   -95118.069 -0.081149312 0.0022654971 -0.078452826  -0.16726061    0.1483386  -0.32993491  0.028869302    110.05788    110.05709    110.05565    1333065.6 
  209500            0   -95118.069 -0.069243276  -0.18067491  0.018106248  -0.04516117  0.032851952  -0.28590753  0.021548257    110.05719    110.05651    110.05523    1333045.1 
  210000            0   -95118.069 -0.039743991 -0.039360914 -0.041597485 -0.038273575  0.066072047  -0.25180893 0.0066331107    110.05651    110.05613    110.05488    1333028.1 
  210500            0   -95118.069  -0.09766968  -0.16846779 -0.035647288 -0.088893967  -0.08589179 -0.021569257  -0.02677154    110.05591    110.05562    110.05456    1333010.8 
  211000            0   -95118.069 -0.036280319 -0.075319373 -0.031852116 -0.0016694684 -0.096172026   0.15194845 -0.095705755    110.05529    110.05511     110.0543    1332993.9 
  211500            0   -95118.069  -0.07227128 -0.052210321  -0.15945467 -0.0051488501 -0.057160289  0.010647847 -0.044784893    110.05484    110.05498    110.05426    1332986.4 
  212000            0   -95118.069  -0.11657971  -0.16989468 -0.037765802  -0.14207866  0.037332885 -0.026022896   0.12375796    110.05441    110.05505    110.05448    1332984.6 
  212500            0   -95118.069 -0.043165965 -0.046056954 -0.040685225 -0.042755716  0.015850032  0.063709883   0.25373232    110.05394    110.05502    110.05472    1332981.5 
  213000            0   -95118.069 -0.039576059 -0.027252833 -0.037775991 -0.053699353   -0.1321713  0.033728364   0.14566982    110.05366     110.0549    110.05506    1332980.8 
  213500            0    -95118.07 -0.099672051  -0.10613046  -0.19841375 0.0055280467 -0.059623828 -0.014368536   0.16109963    110.05327    110.05478    110.05539    1332978.7 
  214000            0    -95118.07 -0.086561336 -0.062042466  -0.14594174 -0.051699805  -0.18676393   0.18778686  0.054967702    110.05294    110.05444    110.05582    1332975.6 
  214500            0    -95118.07  -0.10852214 -0.0068044243  -0.12949882  -0.18926317  -0.30632301   0.37792251  -0.13244323    110.05279    110.05422    110.05607    1332974.2 
  215000            0    -95118.07 -0.036574957 -0.013609551 -0.092016606 -0.0040987134  -0.20233861   0.43572326  -0.05543254    110.05271    110.05404     110.0559    1332968.9 
  215500            0    -95118.07 -0.034064941 -0.016090834 -0.029118846 -0.056985141  -0.12720815   0.43717699  -0.16829199    110.05238    110.05351    110.05568    1332955.9 
  216000            0    -95118.07  -0.11347507  -0.17562441 -0.043631181  -0.12116962  -0.20717545    0.4924276  -0.24295497    110.05224    110.05287    110.05516    1332940.1 
  216500            0    -95118.07  -0.14994336  -0.11031018  -0.25387014 -0.085649775 -0.048298007   0.42227294  -0.11374097    110.05231    110.05263    110.05442    1332929.1 
  217000            0    -95118.07 -0.049402756 -0.0047641194 -0.046767332 -0.096676817   0.11361676   0.13843253 -0.091275494    110.05247    110.05219    110.05338    1332913.2 
  217500            0    -95118.07 -0.083204082 -0.074631388  0.046559039   -0.2215399   0.09225856  0.010707866  -0.10794392     110.0524    110.05172    110.05238    1332894.5 
[...]
minimize 0 1e-10 ${maxiter} ${maxeval}
minimize 0 1e-10 10000000 ${maxeval}
minimize 0 1e-10 10000000 10000000
Neighbor list info ...
  1 neighbor list requests
  update every 1 steps, delay 0 steps, check yes
  master list distance cutoff = 7
Memory usage per processor = 3.97839 Mbytes
Step Temp PotEng Press Pxx Pyy Pzz Pxy Pxz Pyz Lx Ly Lz Volume 
 5031080            0   -95118.072 -0.001247314 -0.021218018 -0.0090575635   0.02653364    2.2862757  0.012096597 -0.054291662    110.04701    110.04701    110.04701    1332707.3 
 5031500            0   -95118.072 -3.5363548e-05 -6.3245048e-05 -4.4876292e-05 2.0306944e-06   0.70860026 1.7780472e-05 -3.3919091e-05    110.04701    110.04701    110.04701    1332707.3 
 5032000            0   -95118.072 -7.4671921e-05 -8.6748872e-05 -8.3411374e-05 -5.3855518e-05   0.70010105 8.1665591e-06  4.47662e-06    110.04701    110.04701    110.04701    1332707.3 
 5032500            0   -95118.072 -9.0195911e-05 -0.00010173104 -0.00010986498 -5.8991714e-05   0.69965265 -4.8823238e-07 2.933354e-07    110.04701    110.04701    110.04701    1332707.3 
 5033000            0   -95118.072 -8.9434297e-05 -0.00010490869 -0.00010438299 -5.9011216e-05   0.69964941 4.6876262e-09 2.7128456e-09    110.04701    110.04701    110.04701    1332707.3 
 5033500            0   -95118.072 -8.4704052e-05 -0.00010029669 -9.9575702e-05 -5.4239767e-05   0.69964939 -4.6228256e-10 2.8068986e-10    110.04701    110.04701    110.04701    1332707.3 
 5034000            0   -95118.072 -8.4893697e-05 -0.00010048786 -9.9760808e-05 -5.4432421e-05   0.69964939 -7.2236455e-11 -9.0802758e-11    110.04701    110.04701    110.04701    1332707.3 
 5034069            0   -95118.072 -8.4894781e-05 -0.00010048892 -9.9761661e-05 -5.4433764e-05   0.69964939 -5.0065377e-11 -6.915702e-11    110.04701    110.04701    110.04701    1332707.3 
Loop time of 21.0307 on 16 procs (16 MPI x 1 OpenMP) for 2989 steps with 12288 atoms

Minimization stats:
  Stopping criterion = force tolerance
  Energy initial, next-to-last, final = 
        -95118.0720786     -95118.0721203     -95118.0721203
  Force two-norm initial, final = 0.0879199 9.99383e-11
  Force max component initial, final = 0.00197535 2.84905e-12
  Final line search alpha, max atom move = 1 2.84905e-12
  Iterations, force evaluations = 2989 5978

Pair  time (%) = 19.8371 (94.3244)
Neigh time (%) = 0 (0)
Comm  time (%) = 0.922217 (4.3851)
Outpt time (%) = 0.018361 (0.0873057)
Other time (%) = 0.253046 (1.20322)

Nlocal:    768 ave 787 max 749 min
Histogram: 8 0 0 0 0 0 0 0 0 8
Nghost:    868.5 ave 874 max 863 min
Histogram: 8 0 0 0 0 0 0 0 0 8
Neighs:    0 ave 0 max 0 min
Histogram: 16 0 0 0 0 0 0 0 0 0
FullNghs:  46078.5 ave 47191 max 44966 min
Histogram: 8 0 0 0 0 0 0 0 0 8

Total # of neighbors = 737256
Ave neighs/atom = 59.998
Neighbor list builds = 0
Dangerous builds = 0

# Obtain new stress tensor

variable tmp equal pxx
variable pxx1 equal ${tmp}
variable pxx1 equal -0.000100488919667717
variable tmp equal pyy
variable pyy1 equal ${tmp}
variable pyy1 equal -9.97616609913254e-05
variable tmp equal pzz
variable pzz1 equal ${tmp}
variable pzz1 equal -5.44337635401364e-05
variable tmp equal pxy
variable pxy1 equal ${tmp}
variable pxy1 equal 0.699649392671782
variable tmp equal pxz
variable pxz1 equal ${tmp}
variable pxz1 equal -5.00653774607395e-11
variable tmp equal pyz
variable pyz1 equal ${tmp}
variable pyz1 equal -6.91570202904192e-11

# Compute elastic constant from pressure tensor

variable C1neg equal ${d1}
variable C1neg equal -0.00100489002167532
variable C2neg equal ${d2}
variable C2neg equal -0.000997553968054889
variable C3neg equal ${d3}
variable C3neg equal -0.000544356399304325
variable C4neg equal ${d4}
variable C4neg equal -6.10172321685392e-08
variable C5neg equal ${d5}
variable C5neg equal 3.19688918523831e-10
variable C6neg equal ${d6}
variable C6neg equal 6.99649388276819

# Reset box and simulation parameters

clear
  using 1 OpenMP thread(s) per MPI task
box tilt large
read_restart restart.equil
  triclinic box = (-55.0235 -55.0235 -55.0235) to (55.0235 55.0235 55.0235) with tilt (0 0 0)
  2 by 2 by 4 MPI processor grid
  12288 atoms
include potential.mod
# NOTE: This script can be modified for different pair styles
# See in.elastic for more info.

# Choose potential
pair_style     rebo
pair_coeff     * * CH.airebo  C
Reading potential file CH.airebo with DATE: 2011-10-25

#pair_style     lcbop
#pair_coeff     C.lcbop
#pair_style     tersoff
#pair_coeff     BNC.tersoff


# Setup neighbor style
neighbor 1.0 nsq
neigh_modify once no every 1 delay 0 check yes

# Setup minimization style
min_style	     cg
min_modify	     dmax ${dmax} line quadratic
min_modify	     dmax 0.01 line quadratic

# Setup output
thermo		500
thermo_style custom step temp pe press pxx pyy pzz pxy pxz pyz lx ly lz vol
thermo_modify norm no


# Output
dump            1 all xtc 100 traj.xtc
dump            2 all xyz 2000 relaxed.xyz
#dump            4 all atom 10 dump.atom

# Positive deformation

variable delta equal ${up}*${len0}
variable delta equal 1.0e-5*${len0}
variable delta equal 1.0e-5*110.047013905227
variable deltaxy equal ${up}*xy
variable deltaxy equal 1.0e-5*xy
variable deltaxz equal ${up}*xz
variable deltaxz equal 1.0e-5*xz
variable deltayz equal ${up}*yz
variable deltayz equal 1.0e-5*yz
if "${dir} == 1" then    "change_box all x delta 0 ${delta} xy delta ${deltaxy} xz delta ${deltaxz} remap units box"
if "${dir} == 2" then    "change_box all y delta 0 ${delta} yz delta ${deltayz} remap units box"
if "${dir} == 3" then    "change_box all z delta 0 ${delta} remap units box"
if "${dir} == 4" then    "change_box all yz delta ${delta} remap units box"
if "${dir} == 5" then    "change_box all xz delta ${delta} remap units box"
if "${dir} == 6" then    "change_box all xy delta ${delta} remap units box"
change_box all xy delta ${delta} remap units box
change_box all xy delta 0.00110047013905227 remap units box
  triclinic box = (-55.0235 -55.0235 -55.0235) to (55.0235 55.0235 55.0235) with tilt (0.00110047 0 0)

# Relax atoms positions

minimize ${etol} ${ftol} ${maxiter} ${maxeval}
minimize 0 ${ftol} ${maxiter} ${maxeval}
minimize 0 1e-10 ${maxiter} ${maxeval}
minimize 0 1e-10 10000000 ${maxeval}
minimize 0 1e-10 10000000 10000000
Neighbor list info ...
  1 neighbor list requests
  update every 1 steps, delay 0 steps, check yes
  master list distance cutoff = 7
Memory usage per processor = 3.97839 Mbytes
Step Temp PotEng Press Pxx Pyy Pzz Pxy Pxz Pyz Lx Ly Lz Volume 
 5031080            0   -95118.072 -0.0012471873 -0.021219853 -0.0090569582  0.026535249   -2.2862329  0.012101648 -0.054293196    110.04701    110.04701    110.04701    1332707.3 
 5031500            0   -95118.072 -3.498431e-05 -7.0121201e-05 -4.1169028e-05 6.3372995e-06  -0.70860753 0.00010843355 -5.1877832e-07    110.04701    110.04701    110.04701    1332707.3 
 5032000            0   -95118.072 -7.6797897e-05 -9.8081862e-05 -8.2608383e-05 -4.9703446e-05  -0.70011541  1.12882e-06 7.4341231e-06    110.04701    110.04701    110.04701    1332707.3 
 5032500            0   -95118.072 -8.9931377e-05 -0.00010422069 -0.00010681341 -5.8760032e-05  -0.69965123 -1.5258246e-06 -3.5596342e-07    110.04701    110.04701    110.04701    1332707.3 
 5033000            0   -95118.072 -8.943126e-05 -0.00010490549 -0.00010437592 -5.9012371e-05  -0.69964941 1.0930388e-08 -6.4260676e-10    110.04701    110.04701    110.04701    1332707.3 
 5033500            0   -95118.072 -8.4703877e-05 -0.00010029791 -9.9574969e-05 -5.4238754e-05  -0.69964939 -6.7449023e-10 1.7917955e-10    110.04701    110.04701    110.04701    1332707.3 
 5034000            0   -95118.072 -8.489341e-05 -0.00010048759 -9.9760531e-05 -5.4432108e-05  -0.69964939 2.8718614e-11 4.8596132e-11    110.04701    110.04701    110.04701    1332707.3 
 5034070            0   -95118.072 -8.4894553e-05 -0.00010048862 -9.9761469e-05 -5.4433576e-05  -0.69964939 4.6315386e-11 6.8691475e-11    110.04701    110.04701    110.04701    1332707.3 
Loop time of 21.0413 on 16 procs (16 MPI x 1 OpenMP) for 2990 steps with 12288 atoms

Minimization stats:
  Stopping criterion = force tolerance
  Energy initial, next-to-last, final = 
        -95118.0720786     -95118.0721203     -95118.0721203
  Force two-norm initial, final = 0.0879116 9.83422e-11
  Force max component initial, final = 0.00170335 2.48268e-12
  Final line search alpha, max atom move = 1 2.48268e-12
  Iterations, force evaluations = 2990 5980

Pair  time (%) = 19.8502 (94.3394)
Neigh time (%) = 0 (0)
Comm  time (%) = 0.919971 (4.37222)
Outpt time (%) = 0.0182599 (0.0867812)
Other time (%) = 0.252832 (1.2016)

Nlocal:    768 ave 787 max 749 min
Histogram: 8 0 0 0 0 0 0 0 0 8
Nghost:    868.5 ave 874 max 863 min
Histogram: 8 0 0 0 0 0 0 0 0 8
Neighs:    0 ave 0 max 0 min
Histogram: 16 0 0 0 0 0 0 0 0 0
FullNghs:  46078.5 ave 47191 max 44966 min
Histogram: 8 0 0 0 0 0 0 0 0 8

Total # of neighbors = 737256
Ave neighs/atom = 59.998
Neighbor list builds = 0
Dangerous builds = 0

# Obtain new stress tensor

variable tmp equal pe
variable e1 equal ${tmp}
variable e1 equal -95118.0721203194
variable tmp equal press
variable p1 equal ${tmp}
variable p1 equal -8.48945533976749e-05
variable tmp equal pxx
variable pxx1 equal ${tmp}
variable pxx1 equal -0.000100488615388786
variable tmp equal pyy
variable pyy1 equal ${tmp}
variable pyy1 equal -9.97614686569049e-05
variable tmp equal pzz
variable pzz1 equal ${tmp}
variable pzz1 equal -5.44335761473335e-05
variable tmp equal pxy
variable pxy1 equal ${tmp}
variable pxy1 equal -0.69964939319355
variable tmp equal pxz
variable pxz1 equal ${tmp}
variable pxz1 equal 4.63153858713751e-11
variable tmp equal pyz
variable pyz1 equal ${tmp}
variable pyz1 equal 6.86914746375255e-11

# Compute elastic constant from pressure tensor

variable C1pos equal ${d1}
variable C1pos equal 0.00100488697888601
variable C2pos equal ${d2}
variable C2pos equal 0.000997552044710684
variable C3pos equal ${d3}
variable C3pos equal 0.000544354525376296
variable C4pos equal ${d4}
variable C4pos equal 5.96387472192598e-08
variable C5pos equal ${d5}
variable C5pos equal -1.28349655184498e-09
variable C6pos equal ${d6}
variable C6pos equal 6.99649397588514

# Combine positive and negative

variable C1${dir} equal 0.5*(${C1neg}+${C1pos})
variable C16 equal 0.5*(${C1neg}+${C1pos})
variable C16 equal 0.5*(-0.00100489002167532+${C1pos})
variable C16 equal 0.5*(-0.00100489002167532+0.00100488697888601)
variable C2${dir} equal 0.5*(${C2neg}+${C2pos})
variable C26 equal 0.5*(${C2neg}+${C2pos})
variable C26 equal 0.5*(-0.000997553968054889+${C2pos})
variable C26 equal 0.5*(-0.000997553968054889+0.000997552044710684)
variable C3${dir} equal 0.5*(${C3neg}+${C3pos})
variable C36 equal 0.5*(${C3neg}+${C3pos})
variable C36 equal 0.5*(-0.000544356399304325+${C3pos})
variable C36 equal 0.5*(-0.000544356399304325+0.000544354525376296)
variable C4${dir} equal 0.5*(${C4neg}+${C4pos})
variable C46 equal 0.5*(${C4neg}+${C4pos})
variable C46 equal 0.5*(-6.10172321685392e-08+${C4pos})
variable C46 equal 0.5*(-6.10172321685392e-08+5.96387472192598e-08)
variable C5${dir} equal 0.5*(${C5neg}+${C5pos})
variable C56 equal 0.5*(${C5neg}+${C5pos})
variable C56 equal 0.5*(3.19688918523831e-10+${C5pos})
variable C56 equal 0.5*(3.19688918523831e-10+-1.28349655184498e-09)
variable C6${dir} equal 0.5*(${C6neg}+${C6pos})
variable C66 equal 0.5*(${C6neg}+${C6pos})
variable C66 equal 0.5*(6.99649388276819+${C6pos})
variable C66 equal 0.5*(6.99649388276819+6.99649397588514)

# Delete dir to make sure it is not reused

variable dir delete

# Output final values

variable C11all equal ${C11}
variable C11all equal 3.83874811270031
variable C22all equal ${C22}
variable C22all equal 3.83874813087175
variable C33all equal ${C33}
variable C33all equal 3.83874811817364

variable C12all equal 0.5*(${C12}+${C21})
variable C12all equal 0.5*(-0.0398999115488985+${C21})
variable C12all equal 0.5*(-0.0398999115488985+-0.039899923997554)
variable C13all equal 0.5*(${C13}+${C31})
variable C13all equal 0.5*(-0.03989992403396+${C31})
variable C13all equal 0.5*(-0.03989992403396+-0.0398999276572332)
variable C23all equal 0.5*(${C23}+${C32})
variable C23all equal 0.5*(-0.0398999279890013+${C32})
variable C23all equal 0.5*(-0.0398999279890013+-0.0398999078463092)

variable C44all equal ${C44}
variable C44all equal 6.99649395666539
variable C55all equal ${C55}
variable C55all equal 6.99649388292315
variable C66all equal ${C66}
variable C66all equal 6.99649392932666

variable C14all equal 0.5*(${C14}+${C41})
variable C14all equal 0.5*(-9.65516057513036e-10+${C41})
variable C14all equal 0.5*(-9.65516057513036e-10+1.1651349464141e-09)
variable C15all equal 0.5*(${C15}+${C51})
variable C15all equal 0.5*(-3.29555069496744e-09+${C51})
variable C15all equal 0.5*(-3.29555069496744e-09+1.55303424516365e-09)
variable C16all equal 0.5*(${C16}+${C61})
variable C16all equal 0.5*(-1.52139465500571e-09+${C61})
variable C16all equal 0.5*(-1.52139465500571e-09+-1.7290494365404e-09)

variable C24all equal 0.5*(${C24}+${C42})
variable C24all equal 0.5*(-9.18021860027603e-10+${C42})
variable C24all equal 0.5*(-9.18021860027603e-10+-1.75977275822535e-09)
variable C25all equal 0.5*(${C25}+${C52})
variable C25all equal 0.5*(-3.47292786000673e-09+${C52})
variable C25all equal 0.5*(-3.47292786000673e-09+-1.84120707010805e-09)
variable C26all equal 0.5*(${C26}+${C62})
variable C26all equal 0.5*(-9.61672102519316e-10+${C62})
variable C26all equal 0.5*(-9.61672102519316e-10+3.288192118602e-10)

variable C34all equal 0.5*(${C34}+${C43})
variable C34all equal 0.5*(-1.93936068398036e-09+${C43})
variable C34all equal 0.5*(-1.93936068398036e-09+1.5597036767463e-09)
variable C35all equal 0.5*(${C35}+${C53})
variable C35all equal 0.5*(-3.28145619401046e-09+${C53})
variable C35all equal 0.5*(-3.28145619401046e-09+1.2157082373905e-09)
variable C36all equal 0.5*(${C36}+${C63})
variable C36all equal 0.5*(-9.36964014513174e-10+${C63})
variable C36all equal 0.5*(-9.36964014513174e-10+-9.7540539737685e-10)

variable C45all equal 0.5*(${C45}+${C54})
variable C45all equal 0.5*(-7.53842272805017e-11+${C54})
variable C45all equal 0.5*(-7.53842272805017e-11+-3.95884647401121e-10)
variable C46all equal 0.5*(${C46}+${C64})
variable C46all equal 0.5*(-6.89242474639701e-10+${C64})
variable C46all equal 0.5*(-6.89242474639701e-10+-9.58105766838486e-11)
variable C56all equal 0.5*(${C56}+${C65})
variable C56all equal 0.5*(-4.81903816660574e-10+${C65})
variable C56all equal 0.5*(-4.81903816660574e-10+-2.89364385169896e-12)

# Average moduli for cubic crystals

variable C11cubic equal (${C11all}+${C22all}+${C33all})/3.0
variable C11cubic equal (3.83874811270031+${C22all}+${C33all})/3.0
variable C11cubic equal (3.83874811270031+3.83874813087175+${C33all})/3.0
variable C11cubic equal (3.83874811270031+3.83874813087175+3.83874811817364)/3.0
variable C12cubic equal (${C12all}+${C13all}+${C23all})/3.0
variable C12cubic equal (-0.0398999177732263+${C13all}+${C23all})/3.0
variable C12cubic equal (-0.0398999177732263+-0.0398999258455966+${C23all})/3.0
variable C12cubic equal (-0.0398999177732263+-0.0398999258455966+-0.0398999179176553)/3.0
variable C44cubic equal (${C44all}+${C55all}+${C66all})/3.0
variable C44cubic equal (6.99649395666539+${C55all}+${C66all})/3.0
variable C44cubic equal (6.99649395666539+6.99649388292315+${C66all})/3.0
variable C44cubic equal (6.99649395666539+6.99649388292315+6.99649392932666)/3.0

variable bulkmodulus equal (${C11cubic}+2*${C12cubic})/3.0
variable bulkmodulus equal (3.8387481205819+2*${C12cubic})/3.0
variable bulkmodulus equal (3.8387481205819+2*-0.0398999205121594)/3.0
variable shearmodulus1 equal ${C44cubic}
variable shearmodulus1 equal 6.99649392297173
variable shearmodulus2 equal (${C11cubic}-${C12cubic})/2.0
variable shearmodulus2 equal (3.8387481205819-${C12cubic})/2.0
variable shearmodulus2 equal (3.8387481205819--0.0398999205121594)/2.0
variable poissonratio equal 1.0/(1.0+${C11cubic}/${C12cubic})
variable poissonratio equal 1.0/(1.0+3.8387481205819/${C12cubic})
variable poissonratio equal 1.0/(1.0+3.8387481205819/-0.0398999205121594)

# For Stillinger-Weber silicon, the analytical results
# are known to be (E. R. Cowley, 1988):
#               C11 = 151.4 GPa
#               C12 = 76.4 GPa
#               C44 = 56.4 GPa

print "========================================="
=========================================
print "Components of the Elastic Constant Tensor"
Components of the Elastic Constant Tensor
print "========================================="
=========================================

print "Elastic Constant C11all = ${C11all} ${cunits}"
Elastic Constant C11all = 3.83874811270031 GPa
print "Elastic Constant C22all = ${C22all} ${cunits}"
Elastic Constant C22all = 3.83874813087175 GPa
print "Elastic Constant C33all = ${C33all} ${cunits}"
Elastic Constant C33all = 3.83874811817364 GPa

print "Elastic Constant C12all = ${C12all} ${cunits}"
Elastic Constant C12all = -0.0398999177732263 GPa
print "Elastic Constant C13all = ${C13all} ${cunits}"
Elastic Constant C13all = -0.0398999258455966 GPa
print "Elastic Constant C23all = ${C23all} ${cunits}"
Elastic Constant C23all = -0.0398999179176553 GPa

print "Elastic Constant C44all = ${C44all} ${cunits}"
Elastic Constant C44all = 6.99649395666539 GPa
print "Elastic Constant C55all = ${C55all} ${cunits}"
Elastic Constant C55all = 6.99649388292315 GPa
print "Elastic Constant C66all = ${C66all} ${cunits}"
Elastic Constant C66all = 6.99649392932666 GPa

print "Elastic Constant C14all = ${C14all} ${cunits}"
Elastic Constant C14all = 9.9809444450532e-11 GPa
print "Elastic Constant C15all = ${C15all} ${cunits}"
Elastic Constant C15all = -8.71258224901895e-10 GPa
print "Elastic Constant C16all = ${C16all} ${cunits}"
Elastic Constant C16all = -1.62522204577306e-09 GPa

print "Elastic Constant C24all = ${C24all} ${cunits}"
Elastic Constant C24all = -1.33889730912648e-09 GPa
print "Elastic Constant C25all = ${C25all} ${cunits}"
Elastic Constant C25all = -2.65706746505739e-09 GPa
print "Elastic Constant C26all = ${C26all} ${cunits}"
Elastic Constant C26all = -3.16426445329558e-10 GPa

print "Elastic Constant C34all = ${C34all} ${cunits}"
Elastic Constant C34all = -1.8982850361703e-10 GPa
print "Elastic Constant C35all = ${C35all} ${cunits}"
Elastic Constant C35all = -1.03287397830998e-09 GPa
print "Elastic Constant C36all = ${C36all} ${cunits}"
Elastic Constant C36all = -9.56184705945012e-10 GPa

print "Elastic Constant C45all = ${C45all} ${cunits}"
Elastic Constant C45all = -2.35634437340811e-10 GPa
print "Elastic Constant C46all = ${C46all} ${cunits}"
Elastic Constant C46all = -3.92526525661775e-10 GPa
print "Elastic Constant C56all = ${C56all} ${cunits}"
Elastic Constant C56all = -2.42398730256136e-10 GPa

print "========================================="
=========================================
print "Average properties for a cubic crystal"
Average properties for a cubic crystal
print "========================================="
=========================================

print "Bulk Modulus = ${bulkmodulus} ${cunits}"
Bulk Modulus = 1.25298275985253 GPa
print "Shear Modulus 1 = ${shearmodulus1} ${cunits}"
Shear Modulus 1 = 6.99649392297173 GPa
print "Shear Modulus 2 = ${shearmodulus2} ${cunits}"
Shear Modulus 2 = 1.93932402054703 GPa
print "Poisson Ratio = ${poissonratio}"
Poisson Ratio = -0.0105031626458322
print "Deformation size: ${up}"
Deformation size: 1.0e-5

print "Lattice_type	lattice_constant	bulk_modulus	poisson	     c11	     c12         c44	" file elastic_constants.out
Lattice_type	lattice_constant	bulk_modulus	poisson	     c11	     c12         c44	
print "${lattype}    ${latconst}    ${bulkmodulus}     ${poissonratio}     ${C11all}     ${C12all}     ${C44all}" append elastic_constants.out
sc    10.0    1.25298275985253     -0.0105031626458322     3.83874811270031     -0.0398999177732263     6.99649395666539
