12288
Atoms. Timestep: 5032000
1 17.5692 19.1338 45.2134
1 36.2488 10.2705 38.2377
1 8.82326 24.5013 49.7652
1 20.9927 9.49192 49.7525
1 23.3849 23.9853 36.988
1 30.6566 5.24447 46.5118
1 45.4699 5.32519 34.1155
1 32.1535 19.4414 33.3015
1 22.3078 16.7468 43.3888
1 15.8768 24.0341 43.1112
1 14.9752 17.0347 49.6824
1 38.8127 12.4085 33.7487
1 31.458 12.5391 40.1196
1 38.0706 5.43565 40.3507
1 4.75934 27.3894 52.3464
1 11.0493 20.0528 52.2607
1 11.4615 26.675 45.3422
1 17.1383 12.5986 52.268
1 22.9983 4.93458 52.3359
1 24.006 11.8355 45.5932
1 18.7296 26.4019 38.9266
1 24.9799 18.9969 38.9597
1 25.8833 26.1058 32.3979
1 27.7216 2.64412 50.4959
1 35.0272 2.77248 44.1841
1 28.5317 9.90628 44.1433
1 42.3711 2.77458 37.9661
1 49.9248 2.68416 31.9175
1 43.3529 9.87929 31.6438
1 29.252 16.9186 37.3331
1 36.6504 16.8792 31.1714
1 29.9923 23.8937 30.5975
1 15.2837 20.4066 46.2465
1 18.4554 16.7292 46.3313
1 19.0154 20.3238 43.1456
1 34.891 9.10211 40.3825
1 38.6115 9.0924 37.256
1 35.1949 12.5326 36.9901
1 10.9204 23.0931 48.5321
1 7.97263 26.9307 48.7206
1 7.89676 23.7042 52.2771
1 23.1134 8.09347 48.6479
1 20.1706 11.9163 48.5929
1 20.0268 8.746 52.2709
1 25.8642 22.9915 36.2184
1 22.4077 26.3226 35.7817
1 21.9438 22.7658 39.0546
1 32.0861 6.57683 44.4997
1 28.1096 6.11713 47.1856
1 31.4844 2.7459 47.4438
1 46.7146 6.36199 31.8654
1 43.2121 6.61542 35.1942
1 46.1706 2.75848 34.9847
1 33.3814 20.4494 30.992
1 30.049 20.8472 34.4756
1 33.1374 17.1017 34.5006
1 24.8251 15.7909 42.6985
1 21.3508 19.1036 42.183
1 20.8231 15.5194 45.411
1 18.16 22.7685 42.0781
1 15.066 26.5087 42.0955
1 14.4433 22.8521 45.1958
1 17.1066 15.6439 48.5212
1 13.9876 19.3445 48.4798
1 14.1372 16.3586 52.2609
1 39.9755 13.3602 31.3927
1 36.4879 13.6162 34.7521
1 39.903 10.1793 35.0349
1 32.7884 13.654 37.9059
1 29.1925 13.8043 41.1545
1 32.4968 10.2402 41.3412
1 39.5373 6.69476 38.3496
1 35.8204 6.68873 41.4516
1 38.6342 2.77547 41.0052
1 2.70292 28.8581 53.6677
1 6.0107 25.2685 53.6368
1 5.88272 28.3419 49.9748
1 9.23931 21.6777 53.6269
1 12.3806 18.0313 53.6255
1 11.8791 20.7484 49.6844
1 9.32234 28.0489 46.5369
1 12.2315 24.1792 46.3154
1 12.8612 27.8318 43.2145
1 15.4145 14.3021 53.6266
1 18.338 10.4832 53.628
1 18.0494 13.3103 49.7225
1 21.1655 6.57758 53.6277
1 24.1181 2.71385 53.6776
1 24.1593 5.84746 49.9755
1 21.6587 13.0829 46.5032
1 24.4524 9.14642 46.502
1 26.0055 13.7667 44.3049
1 16.4623 27.6687 39.9706
1 19.6092 23.9744 40.0186
1 20.1075 27.5532 36.7834
1 22.7966 20.3058 40.1063
1 25.6136 16.382 39.862
1 26.988 20.8631 37.7102
1 23.7627 27.4545 33.6021
1 26.5282 23.5279 33.3558
1 27.8677 27.9088 31.0113
1 26.214 1.33685 52.4806
1 29.9318 1.38368 49.3365
1 26.6719 4.86647 49.2373
1 33.4648 1.39935 46.0428
1 36.9705 1.39947 42.7529
1 34.3858 5.41018 43.4722
1 26.9685 8.12623 45.7612
1 31.0769 8.96314 43.3752
1 28.0829 12.8436 43.5913
1 40.6405 1.39904 39.6474
1 44.4379 1.39794 36.6819
1 41.7933 5.41964 37.2627
1 48.3069 1.38866 33.7733
1 52.1941 1.35615 30.7883
1 48.946 5.04331 30.7651
1 42.2105 8.94317 34.0039
1 45.5685 8.55545 30.5401
1 42.1982 12.0505 30.3009
1 27.6412 15.4141 39.1129
1 31.7518 15.9254 36.6404
1 28.9736 19.8716 36.9079
1 35.4313 15.8737 33.4841
1 38.8729 15.5747 30.0844
1 35.6126 19.1532 29.9147
1 28.4702 22.4972 32.5224
1 32.3897 22.7676 29.7643
1 29.7892 26.859 30.1465
1 18.73 18.5162 44.7288
1 17.1306 20.3477 44.6725
1 16.8574 18.5575 46.2705
1 36.9168 10.8292 37.1413
1 35.0603 10.8421 38.7152
1 36.7602 9.11009 38.8297
1 7.79784 25.2111 50.3997
1 9.31786 23.33 50.3439
1 9.42789 24.9993 48.6068
1 19.9802 10.2385 50.3522
1 21.4398 8.31528 50.3665
1 21.6151 9.99823 48.6085
1 22.2023 24.5722 37.4518
1 23.879 22.8303 37.6092
1 24.0507 24.547 35.8916
1 29.931 4.5819 47.5042
1 31.8423 4.69381 46.033
1 30.15 6.39183 45.9033
1 44.7558 4.73154 35.1599
1 46.583 4.66818 33.5753
1 44.9952 6.51889 33.5593
1 31.5457 18.9251 34.4531
1 33.2783 18.7994 32.7684
1 31.6268 20.5738 32.6645
1 21.1011 17.3225 43.8122
1 22.8086 15.6027 44.0346
1 23.0002 17.3244 42.3142
1 14.7554 24.6795 43.6462
1 16.2897 22.7984 43.6212
1 16.5997 24.6291 42.0719
1 13.9537 17.7588 50.3007
1 15.4942 15.9019 50.3099
1 15.5446 17.491 48.491
1 38.197 11.9025 34.8989
1 39.9605 11.7921 33.2357
1 38.2614 13.5184 33.0993
1 30.8134 11.9871 41.2411
1 32.6571 11.975 39.6515
1 30.8991 13.6389 39.4454
1 37.3157 4.78284 41.326
1 39.1667 4.78554 39.7781
1 37.6786 6.69994 39.9021
1 5.76079 26.6621 51.6917
1 4.23378 28.5452 51.7687
1 4.38179 27.071 53.6517
1 11.9901 19.271 51.5898
1 10.431 21.1115 51.5956
1 10.8235 19.8647 53.6258
1 12.5444 26.0029 44.7631
1 11.0825 27.933 44.8644
1 10.7612 26.1045 46.4102
1 18.0569 11.7859 51.6063
1 16.5747 13.6841 51.6002
1 16.8914 12.4053 53.6275
1 24.0922 4.25558 51.7966
1 22.4543 6.03417 51.6637
1 22.6058 4.63015 53.643
1 25.1227 11.1091 45.1589
1 23.7313 13.1712 45.1891
1 23.1321 11.1664 46.507
1 19.8781 25.7805 38.4236
1 18.281 27.6061 38.372
1 18.0265 25.8147 39.9839
1 25.8878 18.1907 38.2602
1 24.7481 20.3549 38.648
1 24.2867 18.3889 40.0479
1 26.7139 25.2612 31.6546
1 25.6561 27.4548 32.0619
1 25.2479 25.5475 33.5461
1 28.4642 3.28302 49.5045
1 26.5113 3.17568 50.9398
1 28.0867 1.36683 50.9155
1 35.7926 3.4547 43.2394
1 34.0082 3.44742 44.8552
1 35.2007 1.40039 44.3784
1 29.3585 10.7167 43.3217
1 27.211 10.2203 44.495
1 29.0483 8.68265 44.6587
1 43.2041 3.45035 37.0734
1 41.32 3.45651 38.5821
1 42.5268 1.39889 38.1517
1 50.6124 3.24773 30.8395
1 48.8183 3.34825 32.4696
1 50.2456 1.3751 32.2951
1 43.88 10.3019 30.4197
1 42.2341 10.5278 32.1802
1 43.9261 8.78483 32.3012
1 30.1091 17.7101 36.5448
1 27.896 17.2157 37.5005
1 29.7497 15.7613 37.9979
1 37.2354 17.3574 29.9937
1 35.529 17.522 31.7072
1 37.1794 15.7515 31.8087
1 30.8343 24.6402 29.7532
1 28.6511 24.2204 30.8101
1 30.4962 22.7397 31.2645
1 14.1707 21.0595 46.7906
1 15.728 19.1989 46.7937
1 15.9892 20.9795 45.1832
1 17.3088 17.3584 46.831
1 18.9036 15.5312 46.897
1 19.1816 17.3147 45.2888
1 17.8575 20.9424 43.6355
1 19.4586 19.1138 43.6943
1 19.7451 20.9265 42.1141
1 34.1946 8.49549 41.4343
1 36.068 8.51962 39.8927
1 34.3803 10.2681 39.7979
1 37.9298 8.51813 38.334
1 39.7728 8.48951 36.7543
1 38.0941 10.2447 36.6542
1 34.5288 11.9772 38.0909
1 36.382 11.9599 36.5135
1 34.6609 13.6587 36.3527
1 11.9847 22.4071 47.9353
1 10.4831 24.3087 47.9988
1 10.341 22.6161 49.7117
1 9.01893 26.2363 48.1017
1 7.58588 28.1828 48.2373
1 7.33862 26.412 49.8539
1 8.86423 22.9488 51.6097
1 7.30219 24.7943 51.6384
1 7.63213 23.4753 53.6297
1 24.2618 7.45095 48.1788
1 22.682 9.29438 48.0637
1 22.492 7.59524 49.7975
1 21.2611 11.233 48.049
1 19.7657 13.1274 48.0257
1 19.5426 11.416 49.7395
1 20.9475 7.92547 51.6169
1 19.5048 9.86064 51.6101
1 19.7572 8.53695 53.6264
1 27.2078 22.6362 36.0626
1 25.2208 23.9413 35.4014
1 25.1377 22.3328 37.2504
1 23.5536 25.7009 35.2727
1 21.9352 27.5027 35.1958
1 21.7303 25.7529 36.8658
1 23.1317 22.1797 38.599
1 21.4941 23.9709 38.4987
1 21.2068 22.1448 40.0699
1 32.7904 7.23677 43.4887
1 30.8606 7.09431 44.9257
1 32.5451 5.36221 45.0268
1 28.8584 6.78913 46.2158
1 26.7931 6.47892 47.4695
1 28.6763 5.05468 47.8845
1 32.2238 3.42283 46.4708
1 30.3805 3.36868 48.0273
1 31.7219 1.39416 47.7084
1 47.2593 6.80546 30.6577
1 45.6017 7.01989 32.404
1 47.2434 5.21631 32.4722
1 43.8699 7.16353 34.0891
1 42.079 7.25028 35.7188
1 43.6455 5.38715 35.7053
1 46.972 3.40627 34.04
1 45.0931 3.43593 35.5659
1 46.3674 1.39519 35.2278
1 33.9974 20.9562 29.8409
1 32.2402 21.0758 31.5077
1 33.8932 19.3066 31.6174
1 30.4719 21.1987 33.1755
1 29.1784 21.6313 35.2436
1 30.4892 19.6209 35.0543
1 33.7796 17.6438 33.3807
1 31.993 17.7217 35.0148
1 33.6282 15.9376 35.1041
1 26.1818 15.4727 42.5762
1 24.1951 16.7341 41.8594
1 24.0951 15.1301 43.7317
1 22.5147 18.4895 41.7009
1 20.9076 20.3124 41.6291
1 20.6339 18.5088 43.2288
1 22.039 14.9454 45.0045
1 20.3656 16.7147 44.837
1 20.066 14.9131 46.4202
1 19.3128 22.1474 41.5814
1 17.7367 23.9961 41.5559
1 17.4303 22.1671 43.1093
1 16.1843 25.8619 41.5573
1 14.655 27.7439 41.5839
1 14.3551 25.9238 43.1484
1 15.5658 22.2066 44.6616
1 14.0368 24.0922 44.6927
1 13.7401 22.2799 46.2609
1 18.2103 14.9798 47.9787
1 16.638 16.8211 47.9334
1 16.5199 15.178 49.7001
1 15.07 18.6681 47.9072
1 13.5164 20.5285 47.9065
1 13.4262 18.8898 49.676
1 15.0648 15.5602 51.5936
1 13.5355 17.4215 51.5895
1 13.9106 16.177 53.6258
1 40.5279 13.8066 30.1878
1 38.8508 14.0001 31.9253
1 40.5387 12.2622 32.0519
1 37.1123 14.1326 33.6108
1 35.3166 14.2063 35.2426
1 37.0279 12.4954 35.3926
1 40.5179 10.6849 33.8846
1 38.7408 10.7812 35.5352
1 40.4334 9.04092 35.6517
1 33.4665 14.2237 36.8184
1 31.5675 14.191 38.3397
1 33.3281 12.5353 38.5541
1 29.6705 14.1853 39.8789
1 28.2291 14.5444 41.8531
1 29.685 12.6217 41.7899
1 33.1847 10.8327 40.2708
1 31.2996 10.8032 41.819
1 33.0056 9.06444 41.9111
1 40.2491 7.29673 37.3084
1 38.397 7.31527 38.8735
1 39.9308 5.43366 38.8064
1 36.5354 7.31359 40.4262
1 34.6701 7.29242 41.9704
1 36.2217 5.42874 41.9058
1 39.4509 3.45801 40.1055
1 37.606 3.4571 41.6551
1 38.7856 1.39902 41.1778
1 1.60038 29.5464 54.3009
1 3.44855 27.8711 54.3289
1 3.17345 29.2226 52.3953
1 5.11141 26.0874 54.3259
1 6.75099 24.3053 54.3252
1 6.31976 25.5367 52.3011
1 4.83477 29.0284 50.6014
1 6.31064 27.1175 50.4903
1 6.53753 28.8721 48.8584
1 8.37533 22.5212 54.3252
1 9.97644 20.7226 54.3254
1 9.47798 21.8807 52.2657
1 11.549 18.9027 54.3256
1 13.0919 17.06 54.3258
1 12.6033 18.213 52.2595
1 10.8588 21.4672 50.3139
1 12.4069 19.6125 50.3011
1 12.4436 21.2102 48.4919
1 8.26628 28.7356 47.1472
1 9.69692 26.7883 47.01
1 10.0141 28.6132 45.4599
1 11.1511 24.8536 46.8974
1 12.6431 22.9436 46.8242
1 12.9342 24.7514 45.2499
1 11.7776 28.5026 43.7924
1 13.254 26.5833 43.7066
1 13.5548 28.4033 42.1427
1 14.6066 15.1951 54.326
1 16.0942 13.3084 54.3261
1 15.6502 14.4883 52.2641
1 17.5529 11.398 54.326
1 18.982 9.46201 54.3253
1 18.5944 10.6837 52.2708
1 17.0217 14.0366 50.3255
1 18.5217 12.1523 50.3413
1 18.6591 13.7925 48.561
1 20.3857 7.50381 54.3242
1 21.7859 5.53566 54.3242
1 21.4723 6.81224 52.2825
1 23.227 3.5774 54.3272
1 24.6883 1.58141 54.3201
1 24.6352 3.15129 52.4552
1 22.9999 6.46492 50.4496
1 24.7237 4.77526 50.6663
1 24.8184 6.37388 48.866
1 20.4909 13.7005 46.9729
1 22.0054 11.8273 47.0139
1 22.4782 13.728 45.5586
1 23.3812 9.86507 47.0008
1 24.9421 7.98495 47.0901
1 25.2113 9.75 45.5438
1 24.6211 13.9957 44.4397
1 26.3826 11.3801 44.5462
1 26.7759 14.7835 43.6671
1 15.3451 28.3156 40.51
1 16.8923 26.4488 40.5034
1 17.1481 28.2401 38.8936
1 18.4583 24.5952 40.5178
1 20.0433 22.7555 40.5541
1 20.3276 24.5768 38.9799
1 18.962 28.1761 37.2909
1 20.5726 26.3648 37.3586
1 20.7826 28.1193 35.696
1 21.637 20.9209 40.5993
1 23.2002 19.0651 40.6215
1 23.5573 20.9472 39.1174
1 24.6965 17.1398 40.6041
1 27.0769 15.2992 41.4801
1 25.8404 16.7877 38.5158
1 25.6307 21.1596 37.8937
1 27.1594 18.4267 37.6575
1 27.7967 21.8766 37.1136
1 22.6089 28.0663 34.1061
1 24.1946 26.2426 34.1514
1 24.4725 28.0458 32.5488
1 25.6682 24.3175 34.1211
1 28.0528 22.4504 34.9284
1 26.6671 23.8747 31.9819
1 26.5184 28.2425 31.2655
1 27.9348 25.4512 30.9347
1 28.7858 28.9143 30.5667
1 25.4648 0.704894 53.5081
1 27.2591 0.693155 51.8157
1 25.801 2.56698 51.9732
1 29.1039 0.697931 50.2288
1 30.9042 0.698947 48.6027
1 29.6332 2.70692 49.0034
1 25.9679 4.2763 50.2832
1 27.9492 4.42443 48.8932
1 26.0817 5.89682 48.5131
1 32.6547 0.698741 46.9375
1 34.3796 0.698156 45.2588
1 33.268 2.76508 45.822
1 36.123 0.697639 43.6065
1 37.9116 0.697389 42.0042
1 36.8114 2.77441 42.5741
1 33.6719 4.75085 44.4749
1 35.4856 4.77342 42.8939
1 33.9629 6.65635 42.9946
1 26.2024 7.49397 46.7319
1 28.303 7.85814 45.5252
1 26.4491 9.23044 45.1605
1 30.3414 8.25639 44.3315
1 32.2981 8.42958 42.9386
1 30.5762 10.1654 42.8446
1 26.8388 12.6056 44.2584
1 29.038 12.0444 42.934
1 28.0369 14.2192 43.2261
1 39.7459 0.697538 40.4525
1 41.6175 0.697907 38.9425
1 40.4903 2.77591 39.4726
1 43.519 0.698346 37.4652
1 45.4448 0.698777 36.0125
1 44.2679 2.76981 36.4748
1 41.0312 4.78083 38.2431
1 42.8988 4.76506 36.7089
1 41.3865 6.66947 36.7852
1 47.3891 0.699118 34.5733
1 49.3445 0.69897 33.1301
1 48.0635 2.73397 33.4742
1 51.3081 0.697184 31.6634
1 48.3557 4.5564 31.9333
1 41.5836 8.42454 35.1413
1 43.3455 8.30991 33.4811
1 41.6606 10.0616 33.3675
1 45.0411 8.1308 31.7628
1 41.6613 11.6191 31.5179
1 26.733 15.5632 40.2057
1 29.0053 15.0919 39.0171
1 27.0798 16.1894 38.0536
1 31.0292 15.2957 37.6649
1 32.9523 15.3639 36.1886
1 31.2917 17.1183 36.0669
1 27.7204 19.6482 37.5531
1 29.8533 19.0504 36.1938
1 29.0138 21.2645 36.613
1 34.795 15.3417 34.6118
1 36.577 15.2557 32.9703
1 34.9162 17.0154 32.8591
1 38.3036 15.1115 31.2754
1 35.0143 18.663 31.0814
1 27.6498 22.7071 33.6676
1 29.8056 22.1256 32.3463
1 27.8594 23.237 31.4673
1 31.7212 22.2016 30.8562
1 28.5131 26.6586 30.7586
1 -17.5681 -19.1338 45.2134
1 -17.5679 19.1339 -45.2136
1 -17.5679 19.1339 45.2136
1 -19.134 -45.2139 -17.5688
1 -19.134 -45.2139 17.5688
1 -19.1325 45.2131 -17.5682
1 -19.1325 45.2131 17.5682
1 -45.2129 -17.5682 -19.1335
1 -45.2129 -17.5682 19.1335
1 -45.213 17.5688 -19.1341
1 -45.213 17.5688 19.1341
1 45.2141 -17.5688 -19.1341
1 45.2141 -17.5688 19.1341
1 45.214 17.5682 -19.1335
1 45.214 17.5682 19.1335
1 19.1336 -45.2131 -17.5682
1 19.1336 -45.2131 17.5682
1 19.1351 45.2139 -17.5688
1 19.1351 45.2139 17.5688
1 17.569 -19.1339 -45.2136
1 17.569 -19.1339 45.2136
1 17.5692 19.1338 -45.2134
1 -17.5681 -19.1338 -45.2134
1 -36.2477 -10.2705 38.2377
1 -36.2478 10.271 -38.2381
1 -36.2478 10.271 38.2381
1 -10.2708 -38.2382 -36.2486
1 -10.2708 -38.2382 36.2486
1 -10.2697 38.2377 -36.2481
1 -10.2697 38.2377 36.2481
1 -38.2378 -36.2484 -10.2708
1 -38.2378 -36.2484 10.2708
1 -38.2369 36.2483 -10.2707
1 -38.2369 36.2483 10.2707
1 38.238 -36.2483 -10.2707
1 38.238 -36.2483 10.2707
1 38.2389 36.2484 -10.2708
1 38.2389 36.2484 10.2708
1 10.2708 -38.2377 -36.2481
1 10.2708 -38.2377 36.2481
1 10.2719 38.2382 -36.2486
1 10.2719 38.2382 36.2486
1 36.2489 -10.271 -38.2381
1 36.2489 -10.271 38.2381
1 36.2488 10.2705 -38.2377
1 -36.2477 -10.2705 -38.2377
1 -8.82216 -24.5013 49.7652
1 -8.82171 24.5012 -49.7652
1 -8.82171 24.5012 49.7652
1 -24.5013 -49.7653 -8.82263
1 -24.5013 -49.7653 8.82263
1 -24.5001 49.765 -8.82235
1 -24.5001 49.765 8.82235
1 -49.7645 -8.82221 -24.501
1 -49.7645 -8.82221 24.501
1 -49.7647 8.82277 -24.5015
1 -49.7647 8.82277 24.5015
1 49.7658 -8.82277 -24.5015
1 49.7658 -8.82277 24.5015
1 49.7656 8.82221 -24.501
1 49.7656 8.82221 24.501
1 24.5012 -49.765 -8.82235
1 24.5012 -49.765 8.82235
1 24.5024 49.7653 -8.82263
1 24.5024 49.7653 8.82263
1 8.82281 -24.5012 -49.7652
1 8.82281 -24.5012 49.7652
1 8.82326 24.5013 -49.7652
1 -8.82216 -24.5013 -49.7652
1 -20.9916 -9.49192 49.7525
1 -20.9915 9.49201 -49.7526
1 -20.9915 9.49201 49.7526
1 -9.49212 -49.7528 -20.9923
1 -9.49212 -49.7528 20.9923
1 -9.49071 49.7523 -20.9919
1 -9.49071 49.7523 20.9919
1 -49.7521 -20.9919 -9.49182
1 -49.7521 -20.9919 9.49182
1 -49.7518 20.9922 -9.49212
1 -49.7518 20.9922 9.49212
1 49.7529 -20.9922 -9.49212
1 49.7529 -20.9922 9.49212
1 49.7532 20.9919 -9.49182
1 49.7532 20.9919 9.49182
1 9.49181 -49.7523 -20.9919
1 9.49181 -49.7523 20.9919
1 9.49322 49.7528 -20.9923
1 9.49322 49.7528 20.9923
1 20.9926 -9.49201 -49.7526
1 20.9926 -9.49201 49.7526
1 20.9927 9.49192 -49.7525
1 -20.9916 -9.49192 -49.7525
1 -23.3838 -23.9853 36.988
1 -23.3835 23.9855 -36.9882
1 -23.3835 23.9855 36.9882
1 -23.9856 -36.9885 -23.3846
1 -23.9856 -36.9885 23.3846
1 -23.9841 36.9878 -23.3839
1 -23.9841 36.9878 23.3839
1 -36.9877 -23.3841 -23.9853
1 -36.9877 -23.3841 23.9853
1 -36.9875 23.3844 -23.9855
1 -36.9875 23.3844 23.9855
1 36.9886 -23.3844 -23.9855
1 36.9886 -23.3844 23.9855
1 36.9888 23.3841 -23.9853
1 36.9888 23.3841 23.9853
1 23.9852 -36.9878 -23.3839
1 23.9852 -36.9878 23.3839
1 23.9867 36.9885 -23.3846
1 23.9867 36.9885 23.3846
1 23.3846 -23.9855 -36.9882
1 23.3846 -23.9855 36.9882
1 23.3849 23.9853 -36.988
1 -23.3838 -23.9853 -36.988
1 -30.6555 -5.24446 46.5118
1 -30.6554 5.24464 -46.5118
1 -30.6554 5.24464 46.5118
1 -5.24459 -46.512 -30.6562
1 -5.24459 -46.512 30.6562
1 -5.24342 46.5116 -30.6558
1 -5.24342 46.5116 30.6558
1 -46.5116 -30.656 -5.24455
1 -46.5116 -30.656 5.24455
1 -46.5109 30.656 -5.24456
1 -46.5109 30.656 5.24456
1 46.512 -30.656 -5.24456
1 46.512 -30.656 5.24456
1 46.5127 30.656 -5.24455
1 46.5127 30.656 5.24455
1 5.24452 -46.5116 -30.6558
1 5.24452 -46.5116 30.6558
1 5.24569 46.512 -30.6562
1 5.24569 46.512 30.6562
1 30.6565 -5.24464 -46.5118
1 30.6565 -5.24464 46.5118
1 30.6566 5.24447 -46.5118
1 -30.6555 -5.24446 -46.5118
1 -45.4688 -5.32519 34.1155
1 -45.4691 5.32569 -34.1159
1 -45.4691 5.32569 34.1159
1 -5.32528 -34.1158 -45.4697
1 -5.32528 -34.1158 45.4697
1 -5.32449 34.1155 -45.4694
1 -5.32449 34.1155 45.4694
1 -34.1156 -45.4696 -5.32549
1 -34.1156 -45.4696 5.32549
1 -34.1146 45.4695 -5.32538
1 -34.1146 45.4695 5.32538
1 34.1157 -45.4695 -5.32538
1 34.1157 -45.4695 5.32538
1 34.1167 45.4696 -5.32549
1 34.1167 45.4696 5.32549
1 5.32559 -34.1155 -45.4694
1 5.32559 -34.1155 45.4694
1 5.32638 34.1158 -45.4697
1 5.32638 34.1158 45.4697
1 45.4702 -5.32569 -34.1159
1 45.4702 -5.32569 34.1159
1 45.4699 5.32519 -34.1155
1 -45.4688 -5.32519 -34.1155
1 -32.1524 -19.4414 33.3015
1 -32.1524 19.4419 -33.302
1 -32.1524 19.4419 33.302
1 -19.4416 -33.302 -32.1532
1 -19.4416 -33.302 32.1532
1 -19.4406 33.3015 -32.1527
1 -19.4406 33.3015 32.1527
1 -33.3017 -32.1531 -19.4418
1 -33.3017 -32.1531 19.4418
1 -33.3007 32.1528 -19.4415
1 -33.3007 32.1528 19.4415
1 33.3018 -32.1528 -19.4415
1 33.3018 -32.1528 19.4415
1 33.3028 32.1531 -19.4418
1 33.3028 32.1531 19.4418
1 19.4417 -33.3015 -32.1527
1 19.4417 -33.3015 32.1527
1 19.4427 33.302 -32.1532
1 19.4427 33.302 32.1532
1 32.1535 -19.4419 -33.302
1 32.1535 -19.4419 33.302
1 32.1535 19.4414 -33.3015
1 -32.1524 -19.4414 -33.3015
1 -22.3067 -16.7468 43.3888
1 -22.3067 16.747 -43.3891
1 -22.3067 16.747 43.3891
1 -16.7471 -43.3894 -22.3076
1 -16.7471 -43.3894 22.3076
1 -16.7456 43.3885 -22.3068
1 -16.7456 43.3885 22.3068
1 -43.3884 -22.307 -16.7467
1 -43.3884 -22.307 16.7467
1 -43.3883 22.3074 -16.7471
1 -43.3883 22.3074 16.7471
1 43.3894 -22.3074 -16.7471
1 43.3894 -22.3074 16.7471
1 43.3895 22.307 -16.7467
1 43.3895 22.307 16.7467
1 16.7467 -43.3885 -22.3068
1 16.7467 -43.3885 22.3068
1 16.7482 43.3894 -22.3076
1 16.7482 43.3894 22.3076
1 22.3078 -16.747 -43.3891
1 22.3078 -16.747 43.3891
1 22.3078 16.7468 -43.3888
1 -22.3067 -16.7468 -43.3888
1 -15.8757 -24.0341 43.1112
1 -15.8754 24.0342 -43.1113
1 -15.8754 24.0342 43.1113
1 -24.0343 -43.1116 -15.8764
1 -24.0343 -43.1116 15.8764
1 -24.0329 43.1109 -15.8757
1 -24.0329 43.1109 15.8757
1 -43.1106 -15.8758 -24.0338
1 -43.1106 -15.8758 24.0338
1 -43.1108 15.8764 -24.0345
1 -43.1108 15.8764 24.0345
1 43.112 -15.8764 -24.0345
1 43.112 -15.8764 24.0345
1 43.1117 15.8758 -24.0338
1 43.1117 15.8758 24.0338
1 24.034 -43.1109 -15.8757
1 24.034 -43.1109 15.8757
1 24.0354 43.1116 -15.8764
1 24.0354 43.1116 15.8764
1 15.8765 -24.0342 -43.1113
1 15.8765 -24.0342 43.1113
1 15.8768 24.0341 -43.1112
1 -15.8757 -24.0341 -43.1112
1 -14.9741 -17.0347 49.6824
1 -14.9738 17.0347 -49.6824
1 -14.9738 17.0347 49.6824
1 -17.0348 -49.6826 -14.9747
1 -17.0348 -49.6826 14.9747
1 -17.0335 49.6821 -14.9743
1 -17.0335 49.6821 14.9743
1 -49.6818 -14.9743 -17.0345
1 -49.6818 -14.9743 17.0345
1 -49.6818 14.9747 -17.0349
1 -49.6818 14.9747 17.0349
1 49.6829 -14.9747 -17.0349
1 49.6829 -14.9747 17.0349
1 49.6829 14.9743 -17.0345
1 49.6829 14.9743 17.0345
1 17.0346 -49.6821 -14.9743
1 17.0346 -49.6821 14.9743
1 17.0359 49.6826 -14.9747
1 17.0359 49.6826 14.9747
1 14.9749 -17.0347 -49.6824
1 14.9749 -17.0347 49.6824
1 14.9752 17.0347 -49.6824
1 -14.9741 -17.0347 -49.6824
1 -38.8116 -12.4085 33.7487
1 -38.8119 12.4092 -33.7492
1 -38.8119 12.4092 33.7492
1 -12.4088 -33.7491 -38.8125
1 -12.4088 -33.7491 38.8125
1 -12.4078 33.7487 -38.8121
1 -12.4078 33.7487 38.8121
1 -33.749 -38.8125 -12.409
1 -33.749 -38.8125 12.409
1 -33.7478 38.8121 -12.4086
1 -33.7478 38.8121 12.4086
1 33.7489 -38.8121 -12.4086
1 33.7489 -38.8121 12.4086
1 33.7501 38.8125 -12.409
1 33.7501 38.8125 12.409
1 12.4089 -33.7487 -38.8121
1 12.4089 -33.7487 38.8121
1 12.4099 33.7491 -38.8125
1 12.4099 33.7491 38.8125
1 38.813 -12.4092 -33.7492
1 38.813 -12.4092 33.7492
1 38.8127 12.4085 -33.7487
1 -38.8116 -12.4085 -33.7487
1 -31.4569 -12.5391 40.1196
1 -31.457 12.5395 -40.12
1 -31.457 12.5395 40.12
1 -12.5394 -40.1201 -31.4578
1 -12.5394 -40.1201 31.4578
1 -12.5381 40.1195 -31.4572
1 -12.5381 40.1195 31.4572
1 -40.1196 -31.4575 -12.5393
1 -40.1196 -31.4575 12.5393
1 -40.1189 31.4575 -12.5393
1 -40.1189 31.4575 12.5393
1 40.12 -31.4575 -12.5393
1 40.12 -31.4575 12.5393
1 40.1207 31.4575 -12.5393
1 40.1207 31.4575 12.5393
1 12.5392 -40.1195 -31.4572
1 12.5392 -40.1195 31.4572
1 12.5405 40.1201 -31.4578
1 12.5405 40.1201 31.4578
1 31.4581 -12.5395 -40.12
1 31.4581 -12.5395 40.12
1 31.458 12.5391 -40.1196
1 -31.4569 -12.5391 -40.1196
1 -38.0695 -5.43565 40.3507
1 -38.0695 5.43597 -40.3509
1 -38.0695 5.43597 40.3509
1 -5.43575 -40.351 -38.0702
1 -5.43575 -40.351 38.0702
1 -5.43477 40.3506 -38.0699
1 -5.43477 40.3506 38.0699
1 -40.3506 -38.0701 -5.43583
1 -40.3506 -38.0701 5.43583
1 -40.3499 38.0701 -5.43579
1 -40.3499 38.0701 5.43579
1 40.351 -38.0701 -5.43579
1 40.351 -38.0701 5.43579
1 40.3517 38.0701 -5.43583
1 40.3517 38.0701 5.43583
1 5.43587 -40.3506 -38.0699
1 5.43587 -40.3506 38.0699
1 5.43685 40.351 -38.0702
1 5.43685 40.351 38.0702
1 38.0707 -5.43597 -40.3509
1 38.0707 -5.43597 40.3509
1 38.0706 5.43565 -40.3507
1 -38.0695 -5.43565 -40.3507
1 -4.75824 -27.3894 52.3464
1 -4.75777 27.3893 -52.3464
1 -4.75777 27.3893 52.3464
1 -27.3894 -52.3465 -4.7586
1 -27.3894 -52.3465 4.7586
1 -27.3883 52.3463 -4.75851
1 -27.3883 52.3463 4.75851
1 -52.3458 -4.75836 -27.3892
1 -52.3458 -4.75836 27.3892
1 -52.346 4.75874 -27.3895
1 -52.346 4.75874 27.3895
1 52.3471 -4.75874 -27.3895
1 52.3471 -4.75874 27.3895
1 52.3469 4.75836 -27.3892
1 52.3469 4.75836 27.3892
1 27.3894 -52.3463 -4.75851
1 27.3894 -52.3463 4.75851
1 27.3905 52.3465 -4.7586
1 27.3905 52.3465 4.7586
1 4.75887 -27.3893 -52.3464
1 4.75887 -27.3893 52.3464
1 4.75934 27.3894 -52.3464
1 -4.75824 -27.3894 -52.3464
1 -11.0482 -20.0528 52.2607
1 -11.0478 20.0528 -52.2607
1 -11.0478 20.0528 52.2607
1 -20.0528 -52.2609 -11.0487
1 -20.0528 -52.2609 11.0487
1 -20.0516 52.2606 -11.0485
1 -20.0516 52.2606 11.0485
1 -52.2602 -11.0485 -20.0527
1 -52.2602 -11.0485 20.0527
1 -52.2602 11.0487 -20.0529
1 -52.2602 11.0487 20.0529
1 52.2613 -11.0487 -20.0529
1 52.2613 -11.0487 20.0529
1 52.2613 11.0485 -20.0527
1 52.2613 11.0485 20.0527
1 20.0527 -52.2606 -11.0485
1 20.0527 -52.2606 11.0485
1 20.0539 52.2609 -11.0487
1 20.0539 52.2609 11.0487
1 11.0489 -20.0528 -52.2607
1 11.0489 -20.0528 52.2607
1 11.0493 20.0528 -52.2607
1 -11.0482 -20.0528 -52.2607
1 -11.4604 -26.675 45.3422
1 -11.4599 26.6749 -45.3421
1 -11.4599 26.6749 45.3421
1 -26.675 -45.3424 -11.461
1 -26.675 -45.3424 11.461
1 -26.6737 45.3419 -11.4605
1 -26.6737 45.3419 11.4605
1 -45.3414 -11.4604 -26.6746
1 -45.3414 -11.4604 26.6746
1 -45.3418 11.4611 -26.6753
1 -45.3418 11.4611 26.6753
1 45.3429 -11.4611 -26.6753
1 45.3429 -11.4611 26.6753
1 45.3425 11.4604 -26.6746
1 45.3425 11.4604 26.6746
1 26.6748 -45.3419 -11.4605
1 26.6748 -45.3419 11.4605
1 26.6761 45.3424 -11.461
1 26.6761 45.3424 11.461
1 11.461 -26.6749 -45.3421
1 11.461 -26.6749 45.3421
1 11.4615 26.675 -45.3422
1 -11.4604 -26.675 -45.3422
1 -17.1372 -12.5986 52.268
1 -17.1369 12.5986 -52.268
1 -17.1369 12.5986 52.268
1 -12.5987 -52.2682 -17.1377
1 -12.5987 -52.2682 17.1377
1 -12.5974 52.2678 -17.1375
1 -12.5974 52.2678 17.1375
1 -52.2676 -17.1375 -12.5985
1 -52.2676 -17.1375 12.5985
1 -52.2673 17.1377 -12.5987
1 -52.2673 17.1377 12.5987
1 52.2684 -17.1377 -12.5987
1 52.2684 -17.1377 12.5987
1 52.2687 17.1375 -12.5985
1 52.2687 17.1375 12.5985
1 12.5985 -52.2678 -17.1375
1 12.5985 -52.2678 17.1375
1 12.5998 52.2682 -17.1377
1 12.5998 52.2682 17.1377
1 17.138 -12.5986 -52.268
1 17.138 -12.5986 52.268
1 17.1383 12.5986 -52.268
1 -17.1372 -12.5986 -52.268
1 -22.9972 -4.93458 52.3359
1 -22.9972 4.93465 -52.3359
1 -22.9972 4.93465 52.3359
1 -4.93471 -52.3361 -22.9979
1 -4.93471 -52.3361 22.9979
1 -4.93341 52.3357 -22.9976
1 -4.93341 52.3357 22.9976
1 -52.3356 -22.9977 -4.93455
1 -52.3356 -22.9977 4.93455
1 -52.3351 22.9978 -4.93468
1 -52.3351 22.9978 4.93468
1 52.3362 -22.9978 -4.93468
1 52.3362 -22.9978 4.93468
1 52.3367 22.9977 -4.93455
1 52.3367 22.9977 4.93455
1 4.93451 -52.3357 -22.9976
1 4.93451 -52.3357 22.9976
1 4.93581 52.3361 -22.9979
1 4.93581 52.3361 22.9979
1 22.9983 -4.93465 -52.3359
1 22.9983 -4.93465 52.3359
1 22.9983 4.93458 -52.3359
1 -22.9972 -4.93458 -52.3359
1 -24.0049 -11.8355 45.5932
1 -24.0048 11.8357 -45.5934
1 -24.0048 11.8357 45.5934
1 -11.8358 -45.5936 -24.0057
1 -11.8358 -45.5936 24.0057
1 -11.8343 45.5929 -24.005
1 -11.8343 45.5929 24.005
1 -45.5928 -24.0052 -11.8354
1 -45.5928 -24.0052 11.8354
1 -45.5926 24.0055 -11.8357
1 -45.5926 24.0055 11.8357
1 45.5937 -24.0055 -11.8357
1 45.5937 -24.0055 11.8357
1 45.5939 24.0052 -11.8354
1 45.5939 24.0052 11.8354
1 11.8354 -45.5929 -24.005
1 11.8354 -45.5929 24.005
1 11.8369 45.5936 -24.0057
1 11.8369 45.5936 24.0057
1 24.0059 -11.8357 -45.5934
1 24.0059 -11.8357 45.5934
1 24.006 11.8355 -45.5932
1 -24.0049 -11.8355 -45.5932
1 -18.7285 -26.4019 38.9266
1 -18.728 26.4019 -38.9266
1 -18.728 26.4019 38.9266
1 -26.4021 -38.9269 -18.7292
1 -26.4021 -38.9269 18.7292
1 -26.4006 38.9262 -18.7284
1 -26.4006 38.9262 18.7284
1 -38.926 -18.7285 -26.4016
1 -38.926 -18.7285 26.4016
1 -38.9261 18.7291 -26.4022
1 -38.9261 18.7291 26.4022
1 38.9272 -18.7291 -26.4022
1 38.9272 -18.7291 26.4022
1 38.9271 18.7285 -26.4016
1 38.9271 18.7285 26.4016
1 26.4017 -38.9262 -18.7284
1 26.4017 -38.9262 18.7284
1 26.4032 38.9269 -18.7292
1 26.4032 38.9269 18.7292
1 18.7291 -26.4019 -38.9266
1 18.7291 -26.4019 38.9266
1 18.7296 26.4019 -38.9266
1 -18.7285 -26.4019 -38.9266
1 -24.9788 -18.9969 38.9597
1 -24.9788 18.9972 -38.9601
1 -24.9788 18.9972 38.9601
1 -18.9972 -38.9603 -24.9797
1 -18.9972 -38.9603 24.9797
1 -18.9958 38.9595 -24.979
1 -18.9958 38.9595 24.979
1 -38.9595 -24.9792 -18.997
1 -38.9595 -24.9792 18.997
1 -38.9592 24.9794 -18.9972
1 -38.9592 24.9794 18.9972
1 38.9603 -24.9794 -18.9972
1 38.9603 -24.9794 18.9972
1 38.9606 24.9792 -18.997
1 38.9606 24.9792 18.997
1 18.9969 -38.9595 -24.979
1 18.9969 -38.9595 24.979
1 18.9983 38.9603 -24.9797
1 18.9983 38.9603 24.9797
1 24.9799 -18.9972 -38.9601
1 24.9799 -18.9972 38.9601
1 24.9799 18.9969 -38.9597
1 -24.9788 -18.9969 -38.9597
1 -25.8822 -26.1058 32.3979
1 -25.8817 26.1058 -32.3979
1 -25.8817 26.1058 32.3979
1 -26.1058 -32.3981 -25.8827
1 -26.1058 -32.3981 25.8827
1 -26.1047 32.3977 -25.8823
1 -26.1047 32.3977 25.8823
1 -32.3976 -25.8825 -26.1058
1 -32.3976 -25.8825 26.1058
1 -32.3971 25.8825 -26.1058
1 -32.3971 25.8825 26.1058
1 32.3982 -25.8825 -26.1058
1 32.3982 -25.8825 26.1058
1 32.3987 25.8825 -26.1058
1 32.3987 25.8825 26.1058
1 26.1058 -32.3977 -25.8823
1 26.1058 -32.3977 25.8823
1 26.1069 32.3981 -25.8827
1 26.1069 32.3981 25.8827
1 25.8828 -26.1058 -32.3979
1 25.8828 -26.1058 32.3979
1 25.8833 26.1058 -32.3979
1 -25.8822 -26.1058 -32.3979
1 -27.7205 -2.64412 50.4959
1 -27.7205 2.64424 -50.4959
1 -27.7205 2.64424 50.4959
1 -2.64423 -50.496 -27.7212
1 -2.64423 -50.496 27.7212
1 -2.64303 50.4957 -27.7209
1 -2.64303 50.4957 27.7209
1 -50.4956 -27.721 -2.64417
1 -50.4956 -27.721 2.64417
1 -50.495 27.7211 -2.64419
1 -50.495 27.7211 2.64419
1 50.4961 -27.7211 -2.64419
1 50.4961 -27.7211 2.64419
1 50.4967 27.721 -2.64417
1 50.4967 27.721 2.64417
1 2.64413 -50.4957 -27.7209
1 2.64413 -50.4957 27.7209
1 2.64533 50.496 -27.7212
1 2.64533 50.496 27.7212
1 27.7216 -2.64424 -50.4959
1 27.7216 -2.64424 50.4959
1 27.7216 2.64412 -50.4959
1 -27.7205 -2.64412 -50.4959
1 -35.0261 -2.77248 44.1841
1 -35.0261 2.77271 -44.1842
1 -35.0261 2.77271 44.1842
1 -2.77254 -44.1842 -35.0267
1 -2.77254 -44.1842 35.0267
1 -2.77156 44.1841 -35.0265
1 -2.77156 44.1841 35.0265
1 -44.1839 -35.0266 -2.7726
1 -44.1839 -35.0266 2.7726
1 -44.1832 35.0267 -2.7726
1 -44.1832 35.0267 2.7726
1 44.1843 -35.0267 -2.7726
1 44.1843 -35.0267 2.7726
1 44.185 35.0266 -2.7726
1 44.185 35.0266 2.7726
1 2.77266 -44.1841 -35.0265
1 2.77266 -44.1841 35.0265
1 2.77364 44.1842 -35.0267
1 2.77364 44.1842 35.0267
1 35.0272 -2.77271 -44.1842
1 35.0272 -2.77271 44.1842
1 35.0272 2.77248 -44.1841
1 -35.0261 -2.77248 -44.1841
1 -28.5306 -9.90628 44.1433
1 -28.5306 9.90656 -44.1435
1 -28.5306 9.90656 44.1435
1 -9.90657 -44.1437 -28.5315
1 -9.90657 -44.1437 28.5315
1 -9.90518 44.1431 -28.5309
1 -9.90518 44.1431 28.5309
1 -44.1431 -28.5311 -9.90635
1 -44.1431 -28.5311 9.90635
1 -44.1426 28.5313 -9.90649
1 -44.1426 28.5313 9.90649
1 44.1437 -28.5313 -9.90649
1 44.1437 -28.5313 9.90649
1 44.1442 28.5311 -9.90635
1 44.1442 28.5311 9.90635
1 9.90628 -44.1431 -28.5309
1 9.90628 -44.1431 28.5309
1 9.90767 44.1437 -28.5315
1 9.90767 44.1437 28.5315
1 28.5317 -9.90656 -44.1435
1 28.5317 -9.90656 44.1435
1 28.5317 9.90628 -44.1433
1 -28.5306 -9.90628 -44.1433
1 -42.37 -2.77458 37.9661
1 -42.3701 2.77493 -37.9662
1 -42.3701 2.77493 37.9662
1 -2.77462 -37.9663 -42.3707
1 -2.77462 -37.9663 42.3707
1 -2.7738 37.9661 -42.3705
1 -2.7738 37.9661 42.3705
1 -37.966 -42.3705 -2.77476
1 -37.966 -42.3705 2.77476
1 -37.9652 42.3706 -2.77475
1 -37.9652 42.3706 2.77475
1 37.9663 -42.3706 -2.77475
1 37.9663 -42.3706 2.77475
1 37.9671 42.3705 -2.77476
1 37.9671 42.3705 2.77476
1 2.7749 -37.9661 -42.3705
1 2.7749 -37.9661 42.3705
1 2.77572 37.9663 -42.3707
1 2.77572 37.9663 42.3707
1 42.3712 -2.77493 -37.9662
1 42.3712 -2.77493 37.9662
1 42.3711 2.77458 -37.9661
1 -42.37 -2.77458 -37.9661
1 -49.9237 -2.68416 31.9175
1 -49.9239 2.68455 -31.9178
1 -49.9239 2.68455 31.9178
1 -2.68411 -31.9177 -49.9244
1 -2.68411 -31.9177 49.9244
1 -2.6835 31.9176 -49.9243
1 -2.6835 31.9176 49.9243
1 -31.9176 -49.9244 -2.68437